Generated by CHARMM-GUI FF-Converter
47742
    1CHL1    C3    1   4.233   3.944   5.998
    1CHL1    H3    2   4.132   3.990   5.986
    1CHL1    O3    3   4.267   3.933   6.135
    1CHL1   H3'    4   4.248   4.018   6.179
    1CHL1    C4    5   4.233   3.801   5.943
    1CHL1   H4A    6   4.325   3.750   5.979
    1CHL1   H4B    7   4.147   3.748   5.992
    1CHL1    C5    8   4.227   3.792   5.793
    1CHL1    C6    9   4.141   3.709   5.732
    1CHL1    H6   10   4.071   3.647   5.791
    1CHL1    C7   11   4.145   3.685   5.584
    1CHL1   H7A   12   4.167   3.579   5.563
    1CHL1   H7B   13   4.048   3.712   5.537
    1CHL1    C8   14   4.262   3.753   5.509
    1CHL1    H8   15   4.353   3.690   5.524
    1CHL1   C14   16   4.229   3.757   5.362
    1CHL1   H14   17   4.137   3.820   5.352
    1CHL1   C15   18   4.195   3.622   5.298
    1CHL1  H15A   19   4.270   3.546   5.329
    1CHL1  H15B   20   4.095   3.587   5.328
    1CHL1   C16   21   4.207   3.650   5.148
    1CHL1  H16A   22   4.269   3.570   5.102
    1CHL1  H16B   23   4.109   3.653   5.096
    1CHL1   C17   24   4.277   3.789   5.134
    1CHL1   H17   25   4.196   3.864   5.118
    1CHL1   C13   26   4.335   3.822   5.275
    1CHL1   C18   27   4.470   3.750   5.292
    1CHL1  H18A   28   4.548   3.791   5.226
    1CHL1  H18B   29   4.508   3.756   5.396
    1CHL1  H18C   30   4.457   3.643   5.270
    1CHL1   C12   31   4.345   3.969   5.321
    1CHL1  H12A   32   4.422   4.023   5.264
    1CHL1  H12B   33   4.247   4.019   5.304
    1CHL1   C11   34   4.379   3.978   5.473
    1CHL1  H11A   35   4.483   3.946   5.487
    1CHL1  H11B   36   4.373   4.084   5.504
    1CHL1    C9   37   4.286   3.892   5.565
    1CHL1    H9   38   4.187   3.944   5.561
    1CHL1   C10   39   4.324   3.883   5.716
    1CHL1   C19   40   4.463   3.817   5.735
    1CHL1  H19A   41   4.497   3.819   5.840
    1CHL1  H19B   42   4.462   3.710   5.704
    1CHL1  H19C   43   4.539   3.868   5.674
    1CHL1    C1   44   4.323   4.027   5.776
    1CHL1   H1A   45   4.405   4.085   5.729
    1CHL1   H1B   46   4.226   4.075   5.749
    1CHL1    C2   47   4.338   4.032   5.929
    1CHL1   H2A   48   4.329   4.136   5.965
    1CHL1   H2B   49   4.439   3.994   5.957
    1CHL1   C20   50   4.366   3.791   5.009
    1CHL1   H20   51   4.441   3.709   5.016
    1CHL1   C21   52   4.438   3.926   4.999
    1CHL1  H21A   53   4.365   4.009   5.004
    1CHL1  H21B   54   4.495   3.935   4.905
    1CHL1  H21C   55   4.510   3.937   5.082
    1CHL1   C22   56   4.281   3.766   4.881
    1CHL1  H22A   57   4.217   3.675   4.890
    1CHL1  H22B   58   4.212   3.853   4.872
    1CHL1   C23   59   4.359   3.752   4.748
    1CHL1  H23A   60   4.455   3.805   4.755
    1CHL1  H23B   61   4.384   3.645   4.730
    1CHL1   C24   62   4.277   3.807   4.631
    1CHL1  H24A   63   4.201   3.731   4.601
    1CHL1  H24B   64   4.221   3.898   4.665
    1CHL1   C25   65   4.357   3.851   4.507
    1CHL1   H25   66   4.418   3.765   4.472
    1CHL1   C26   67   4.261   3.892   4.395
    1CHL1  H26A   68   4.317   3.913   4.301
    1CHL1  H26B   69   4.188   3.810   4.375
    1CHL1  H26C   70   4.204   3.983   4.423
    1CHL1   C27   71   4.452   3.968   4.538
    1CHL1  H27A   72   4.495   4.009   4.444
    1CHL1  H27B   73   4.397   4.050   4.588
    1CHL1  H27C   74   4.536   3.936   4.603
    2CHL1    C3   75   3.896   4.696   5.982
    2CHL1    H3   76   3.882   4.585   5.985
    2CHL1    O3   77   3.906   4.748   6.114
    2CHL1   H3'   78   3.995   4.723   6.143
    2CHL1    C4   79   4.025   4.727   5.903
    2CHL1   H4A   80   4.048   4.835   5.916
    2CHL1   H4B   81   4.109   4.671   5.950
    2CHL1    C5   82   4.016   4.697   5.754
    2CHL1    C6   83   4.106   4.619   5.690
    2CHL1    H6   84   4.191   4.578   5.747
    2CHL1    C7   85   4.106   4.594   5.542
    2CHL1   H7A   86   4.207   4.616   5.499
    2CHL1   H7B   87   4.087   4.487   5.522
    2CHL1    C8   88   4.003   4.681   5.464
    2CHL1    H8   89   4.049   4.781   5.451
    2CHL1   C14   90   3.973   4.621   5.328
    2CHL1   H14   91   3.924   4.523   5.347
    2CHL1   C15   92   4.093   4.587   5.238
    2CHL1  H15A   93   4.165   4.671   5.239
    2CHL1  H15B   94   4.145   4.494   5.270
    2CHL1   C16   95   4.030   4.572   5.099
    2CHL1  H16A   96   4.084   4.639   5.028
    2CHL1  H16B   97   4.036   4.468   5.062
    2CHL1   C17   98   3.880   4.616   5.110
    2CHL1   H17   99   3.821   4.523   5.129
    2CHL1   C13  100   3.874   4.699   5.241
    2CHL1   C18  101   3.929   4.841   5.212
    2CHL1  H18A  102   3.946   4.898   5.306
    2CHL1  H18B  103   4.026   4.837   5.158
    2CHL1  H18C  104   3.857   4.899   5.151
    2CHL1   C12  105   3.741   4.703   5.317
    2CHL1  H12A  106   3.665   4.763   5.263
    2CHL1  H12B  107   3.701   4.600   5.327
    2CHL1   C11  108   3.759   4.764   5.458
    2CHL1  H11A  109   3.780   4.872   5.445
    2CHL1  H11B  110   3.662   4.756   5.511
    2CHL1    C9  111   3.872   4.697   5.542
    2CHL1    H9  112   3.836   4.594   5.559
    2CHL1   C10  113   3.893   4.757   5.683
    2CHL1   C19  114   3.914   4.910   5.671
    2CHL1  H19A  115   3.822   4.959   5.635
    2CHL1  H19B  116   3.940   4.956   5.768
    2CHL1  H19C  117   3.996   4.932   5.600
    2CHL1    C1  118   3.765   4.725   5.767
    2CHL1   H1A  119   3.679   4.780   5.724
    2CHL1   H1B  120   3.744   4.616   5.758
    2CHL1    C2  121   3.775   4.761   5.916
    2CHL1   H2A  122   3.683   4.729   5.969
    2CHL1   H2B  123   3.784   4.871   5.926
    2CHL1   C20  124   3.827   4.676   4.979
    2CHL1   H20  125   3.880   4.773   4.962
    2CHL1   C21  126   3.675   4.704   4.982
    2CHL1  H21A  127   3.619   4.610   5.000
    2CHL1  H21B  128   3.643   4.746   4.884
    2CHL1  H21C  129   3.649   4.778   5.060
    2CHL1   C22  130   3.859   4.587   4.855
    2CHL1  H22A  131   3.958   4.537   4.867
    2CHL1  H22B  132   3.784   4.505   4.847
    2CHL1   C23  133   3.868   4.665   4.724
    2CHL1  H23A  134   3.767   4.674   4.677
    2CHL1  H23B  135   3.904   4.768   4.748
    2CHL1   C24  136   3.968   4.600   4.626
    2CHL1  H24A  137   4.066   4.588   4.677
    2CHL1  H24B  138   3.931   4.499   4.599
    2CHL1   C25  139   3.993   4.680   4.496
    2CHL1   H25  140   3.896   4.684   4.441
    2CHL1   C26  141   4.040   4.823   4.522
    2CHL1  H26A  142   4.063   4.874   4.427
    2CHL1  H26B  143   3.961   4.882   4.574
    2CHL1  H26C  144   4.131   4.824   4.586
    2CHL1   C27  145   4.097   4.609   4.407
    2CHL1  H27A  146   4.068   4.503   4.389
    2CHL1  H27B  147   4.103   4.661   4.308
    2CHL1  H27C  148   4.197   4.612   4.455
    3CHL1    C3  149   2.935   3.553   5.995
    3CHL1    H3  150   3.005   3.639   6.007
    3CHL1    O3  151   2.909   3.498   6.124
    3CHL1   H3'  152   2.944   3.408   6.121
    3CHL1    C4  153   2.802   3.604   5.936
    3CHL1   H4A  154   2.728   3.521   5.940
    3CHL1   H4B  155   2.763   3.682   6.006
    3CHL1    C5  156   2.813   3.656   5.794
    3CHL1    C6  157   2.756   3.771   5.754
    3CHL1    H6  158   2.700   3.832   5.827
    3CHL1    C7  159   2.748   3.815   5.610
    3CHL1   H7A  160   2.644   3.845   5.585
    3CHL1   H7B  161   2.814   3.903   5.595
    3CHL1    C8  162   2.789   3.706   5.507
    3CHL1    H8  163   2.703   3.635   5.500
    3CHL1   C14  164   2.816   3.767   5.369
    3CHL1   H14  165   2.908   3.830   5.381
    3CHL1   C15  166   2.712   3.862   5.306
    3CHL1  H15A  167   2.613   3.813   5.311
    3CHL1  H15B  168   2.707   3.960   5.356
    3CHL1   C16  169   2.756   3.872   5.159
    3CHL1  H16A  170   2.666   3.876   5.094
    3CHL1  H16B  171   2.814   3.965   5.143
    3CHL1   C17  172   2.846   3.749   5.127
    3CHL1   H17  173   2.949   3.788   5.113
    3CHL1   C13  174   2.848   3.665   5.259
    3CHL1   C18  175   2.732   3.562   5.252
    3CHL1  H18A  176   2.756   3.480   5.321
    3CHL1  H18B  177   2.635   3.607   5.279
    3CHL1  H18C  178   2.720   3.507   5.158
    3CHL1   C12  179   2.981   3.599   5.305
    3CHL1  H12A  180   3.015   3.522   5.234
    3CHL1  H12B  181   3.059   3.678   5.308
    3CHL1   C11  182   2.972   3.535   5.447
    3CHL1  H11A  183   2.912   3.442   5.439
    3CHL1  H11B  184   3.074   3.504   5.478
    3CHL1    C9  185   2.912   3.628   5.558
    3CHL1    H9  186   2.990   3.706   5.575
    3CHL1   C10  187   2.888   3.561   5.698
    3CHL1   C19  188   2.790   3.443   5.686
    3CHL1  H19A  189   2.780   3.384   5.779
    3CHL1  H19B  190   2.690   3.485   5.665
    3CHL1  H19C  191   2.819   3.371   5.607
    3CHL1    C1  192   3.019   3.507   5.761
    3CHL1   H1A  193   3.060   3.427   5.696
    3CHL1   H1B  194   3.095   3.588   5.765
    3CHL1    C2  195   3.001   3.449   5.904
    3CHL1   H2A  196   3.100   3.419   5.944
    3CHL1   H2B  197   2.940   3.357   5.900
    3CHL1   C20  198   2.806   3.674   4.997
    3CHL1   H20  199   2.704   3.632   5.012
    3CHL1   C21  200   2.906   3.558   4.974
    3CHL1  H21A  201   2.912   3.492   5.062
    3CHL1  H21B  202   3.007   3.597   4.952
    3CHL1  H21C  203   2.874   3.492   4.891
    3CHL1   C22  204   2.787   3.758   4.868
    3CHL1  H22A  205   2.714   3.840   4.884
    3CHL1  H22B  206   2.884   3.804   4.840
    3CHL1   C23  207   2.734   3.670   4.752
    3CHL1  H23A  208   2.810   3.592   4.732
    3CHL1  H23B  209   2.641   3.619   4.783
    3CHL1   C24  210   2.707   3.744   4.620
    3CHL1  H24A  211   2.624   3.814   4.639
    3CHL1  H24B  212   2.794   3.804   4.589
    3CHL1   C25  213   2.672   3.651   4.502
    3CHL1   H25  214   2.577   3.596   4.526
    3CHL1   C26  215   2.655   3.720   4.365
    3CHL1  H26A  216   2.749   3.772   4.337
    3CHL1  H26B  217   2.635   3.643   4.286
    3CHL1  H26C  218   2.571   3.791   4.362
    3CHL1   C27  219   2.785   3.551   4.484
    3CHL1  H27A  220   2.765   3.507   4.387
    3CHL1  H27B  221   2.883   3.601   4.480
    3CHL1  H27C  222   2.785   3.472   4.562
    4CHL1    C3  223   3.135   4.850   5.978
    4CHL1    H3  224   3.027   4.864   5.955
    4CHL1    O3  225   3.153   4.838   6.119
    4CHL1   H3'  226   3.226   4.898   6.134
    4CHL1    C4  227   3.186   4.722   5.911
    4CHL1   H4A  228   3.291   4.704   5.943
    4CHL1   H4B  229   3.128   4.636   5.951
    4CHL1    C5  230   3.179   4.732   5.760
    4CHL1    C6  231   3.103   4.647   5.689
    4CHL1    H6  232   3.048   4.568   5.742
    4CHL1    C7  233   3.092   4.650   5.540
    4CHL1   H7A  234   3.102   4.548   5.497
    4CHL1   H7B  235   2.991   4.688   5.512
    4CHL1    C8  236   3.198   4.737   5.470
    4CHL1    H8  237   3.294   4.680   5.467
    4CHL1   C14  238   3.152   4.766   5.327
    4CHL1   H14  239   3.054   4.820   5.340
    4CHL1   C15  240   3.120   4.648   5.234
    4CHL1  H15A  241   3.208   4.580   5.227
    4CHL1  H15B  242   3.033   4.589   5.268
    4CHL1   C16  243   3.097   4.718   5.098
    4CHL1  H16A  244   3.151   4.663   5.019
    4CHL1  H16B  245   2.989   4.720   5.073
    4CHL1   C17  246   3.151   4.865   5.115
    4CHL1   H17  247   3.063   4.928   5.140
    4CHL1   C13  248   3.239   4.860   5.243
    4CHL1   C18  249   3.373   4.792   5.206
    4CHL1  H18A  250   3.420   4.745   5.295
    4CHL1  H18B  251   3.361   4.714   5.128
    4CHL1  H18C  252   3.443   4.868   5.166
    4CHL1   C12  253   3.263   4.988   5.325
    4CHL1  H12A  254   3.335   5.056   5.274
    4CHL1  H12B  255   3.167   5.042   5.337
    4CHL1   C11  256   3.321   4.954   5.464
    4CHL1  H11A  257   3.416   4.898   5.450
    4CHL1  H11B  258   3.347   5.046   5.518
    4CHL1    C9  259   3.221   4.867   5.545
    4CHL1    H9  260   3.123   4.921   5.543
    4CHL1   C10  261   3.255   4.850   5.697
    4CHL1   C19  262   3.407   4.826   5.710
    4CHL1  H19A  263   3.437   4.804   5.814
    4CHL1  H19B  264   3.438   4.741   5.646
    4CHL1  H19C  265   3.464   4.917   5.678
    4CHL1    C1  266   3.213   4.979   5.774
    4CHL1   H1A  267   3.280   5.062   5.743
    4CHL1   H1B  268   3.109   5.006   5.745
    4CHL1    C2  269   3.216   4.970   5.928
    4CHL1   H2A  270   3.173   5.064   5.971
    4CHL1   H2B  271   3.321   4.961   5.961
    4CHL1   C20  272   3.211   4.923   4.987
    4CHL1   H20  273   3.302   4.864   4.959
    4CHL1   C21  274   3.255   5.069   5.012
    4CHL1  H21A  275   3.344   5.072   5.077
    4CHL1  H21B  276   3.172   5.125   5.059
    4CHL1  H21C  277   3.284   5.120   4.918
    4CHL1   C22  278   3.116   4.915   4.865
    4CHL1  H22A  279   3.092   4.808   4.844
    4CHL1  H22B  280   3.020   4.967   4.886
    4CHL1   C23  281   3.180   4.975   4.738
    4CHL1  H23A  282   3.167   5.086   4.740
    4CHL1  H23B  283   3.289   4.953   4.742
    4CHL1   C24  284   3.125   4.918   4.607
    4CHL1  H24A  285   3.115   4.809   4.622
    4CHL1  H24B  286   3.024   4.960   4.588
    4CHL1   C25  287   3.218   4.941   4.486
    4CHL1   H25  288   3.308   4.875   4.498
    4CHL1   C26  289   3.156   4.907   4.350
    4CHL1  H26A  290   3.156   4.797   4.332
    4CHL1  H26B  291   3.051   4.942   4.345
    4CHL1  H26C  292   3.213   4.955   4.267
    4CHL1   C27  293   3.271   5.085   4.488
    4CHL1  H27A  294   3.192   5.158   4.510
    4CHL1  H27B  295   3.345   5.094   4.570
    4CHL1  H27C  296   3.318   5.111   4.391
    5CHL1    C3  297   3.682   5.477   5.986
    5CHL1    H3  298   3.654   5.370   5.999
    5CHL1    O3  299   3.708   5.533   6.114
    5CHL1   H3'  300   3.771   5.473   6.154
    5CHL1    C4  301   3.808   5.485   5.899
    5CHL1   H4A  302   3.843   5.590   5.896
    5CHL1   H4B  303   3.889   5.427   5.948
    5CHL1    C5  304   3.783   5.436   5.757
    5CHL1    C6  305   3.854   5.335   5.703
    5CHL1    H6  306   3.936   5.289   5.761
    5CHL1    C7  307   3.836   5.287   5.562
    5CHL1   H7A  308   3.934   5.268   5.514
    5CHL1   H7B  309   3.780   5.191   5.562
    5CHL1    C8  310   3.757   5.390   5.476
    5CHL1    H8  311   3.824   5.477   5.460
    5CHL1   C14  312   3.720   5.328   5.342
    5CHL1   H14  313   3.654   5.240   5.365
    5CHL1   C15  314   3.834   5.273   5.255
    5CHL1  H15A  315   3.918   5.345   5.254
    5CHL1  H15B  316   3.871   5.175   5.291
    5CHL1   C16  317   3.772   5.263   5.115
    5CHL1  H16A  318   3.839   5.315   5.043
    5CHL1  H16B  319   3.759   5.158   5.083
    5CHL1   C17  320   3.633   5.335   5.121
    5CHL1   H17  321   3.556   5.256   5.137
    5CHL1   C13  322   3.638   5.419   5.251
    5CHL1   C18  323   3.716   5.548   5.219
    5CHL1  H18A  324   3.805   5.530   5.156
    5CHL1  H18B  325   3.648   5.617   5.165
    5CHL1  H18C  326   3.750   5.602   5.310
    5CHL1   C12  327   3.506   5.449   5.324
    5CHL1  H12A  328   3.439   5.513   5.264
    5CHL1  H12B  329   3.455   5.352   5.343
    5CHL1   C11  330   3.534   5.518   5.459
    5CHL1  H11A  331   3.576   5.618   5.436
    5CHL1  H11B  332   3.439   5.535   5.513
    5CHL1    C9  333   3.631   5.437   5.550
    5CHL1    H9  334   3.576   5.343   5.575
    5CHL1   C10  335   3.664   5.504   5.686
    5CHL1   C19  336   3.700   5.653   5.660
    5CHL1  H19A  337   3.611   5.709   5.623
    5CHL1  H19B  338   3.731   5.705   5.753
    5CHL1  H19C  339   3.782   5.662   5.586
    5CHL1    C1  340   3.540   5.495   5.779
    5CHL1   H1A  341   3.454   5.549   5.734
    5CHL1   H1B  342   3.510   5.388   5.788
    5CHL1    C2  343   3.564   5.550   5.921
    5CHL1   H2A  344   3.473   5.535   5.984
    5CHL1   H2B  345   3.584   5.659   5.918
    5CHL1   C20  346   3.600   5.406   4.988
    5CHL1   H20  347   3.674   5.488   4.973
    5CHL1   C21  348   3.459   5.469   4.990
    5CHL1  H21A  349   3.434   5.510   4.890
    5CHL1  H21B  350   3.454   5.553   5.062
    5CHL1  H21C  351   3.383   5.392   5.016
    5CHL1   C22  352   3.614   5.313   4.866
    5CHL1  H22A  353   3.707   5.252   4.874
    5CHL1  H22B  354   3.529   5.241   4.863
    5CHL1   C23  355   3.626   5.388   4.732
    5CHL1  H23A  356   3.525   5.398   4.687
    5CHL1  H23B  357   3.665   5.491   4.752
    5CHL1   C24  358   3.723   5.320   4.634
    5CHL1  H24A  359   3.735   5.383   4.543
    5CHL1  H24B  360   3.823   5.313   4.683
    5CHL1   C25  361   3.678   5.179   4.591
    5CHL1   H25  362   3.637   5.126   4.680
    5CHL1   C26  363   3.569   5.189   4.484
    5CHL1  H26A  364   3.534   5.087   4.458
    5CHL1  H26B  365   3.484   5.249   4.522
    5CHL1  H26C  366   3.608   5.237   4.392
    5CHL1   C27  367   3.793   5.095   4.535
    5CHL1  H27A  368   3.877   5.089   4.607
    5CHL1  H27B  369   3.757   4.992   4.514
    5CHL1  H27C  370   3.830   5.138   4.439
    6CHL1    C3  371   3.459   1.919   6.001
    6CHL1    H3  372   3.467   2.030   6.004
    6CHL1    O3  373   3.439   1.871   6.134
    6CHL1   H3'  374   3.341   1.876   6.146
    6CHL1    C4  375   3.342   1.883   5.905
    6CHL1   H4A  376   3.319   1.775   5.920
    6CHL1   H4B  377   3.252   1.937   5.942
    6CHL1    C5  378   3.367   1.911   5.757
    6CHL1    C6  379   3.287   1.986   5.679
    6CHL1    H6  380   3.194   2.028   5.720
    6CHL1    C7  381   3.313   2.012   5.532
    6CHL1   H7A  382   3.218   2.007   5.474
    6CHL1   H7B  383   3.353   2.115   5.520
    6CHL1    C8  384   3.415   1.913   5.470
    6CHL1    H8  385   3.366   1.813   5.465
    6CHL1   C14  386   3.458   1.954   5.329
    6CHL1   H14  387   3.506   2.055   5.339
    6CHL1   C15  388   3.348   1.972   5.222
    6CHL1  H15A  389   3.273   1.891   5.232
    6CHL1  H15B  390   3.298   2.070   5.231
    6CHL1   C16  391   3.422   1.958   5.088
    6CHL1  H16A  392   3.375   1.876   5.030
    6CHL1  H16B  393   3.419   2.051   5.027
    6CHL1   C17  394   3.570   1.921   5.121
    6CHL1   H17  395   3.625   2.017   5.128
    6CHL1   C13  396   3.565   1.864   5.266
    6CHL1   C18  397   3.515   1.718   5.256
    6CHL1  H18A  398   3.594   1.652   5.216
    6CHL1  H18B  399   3.484   1.678   5.354
    6CHL1  H18C  400   3.427   1.713   5.189
    6CHL1   C12  401   3.690   1.875   5.355
    6CHL1  H12A  402   3.775   1.816   5.315
    6CHL1  H12B  403   3.720   1.981   5.362
    6CHL1   C11  404   3.659   1.828   5.498
    6CHL1  H11A  405   3.642   1.719   5.495
    6CHL1  H11B  406   3.750   1.846   5.559
    6CHL1    C9  407   3.538   1.902   5.562
    6CHL1    H9  408   3.573   2.008   5.574
    6CHL1   C10  409   3.500   1.854   5.705
    6CHL1   C19  410   3.492   1.699   5.705
    6CHL1  H19A  411   3.459   1.658   5.803
    6CHL1  H19B  412   3.422   1.663   5.627
    6CHL1  H19C  413   3.592   1.655   5.686
    6CHL1    C1  414   3.609   1.903   5.803
    6CHL1   H1A  415   3.706   1.867   5.766
    6CHL1   H1B  416   3.609   2.013   5.801
    6CHL1    C2  417   3.590   1.861   5.949
    6CHL1   H2A  418   3.675   1.898   6.011
    6CHL1   H2B  419   3.589   1.750   5.956
    6CHL1   C20  420   3.637   1.839   5.010
    6CHL1   H20  421   3.596   1.735   5.007
    6CHL1   C21  422   3.787   1.828   5.040
    6CHL1  H21A  423   3.844   1.796   4.951
    6CHL1  H21B  424   3.804   1.752   5.119
    6CHL1  H21C  425   3.829   1.924   5.075
    6CHL1   C22  426   3.611   1.897   4.867
    6CHL1  H22A  427   3.504   1.880   4.843
    6CHL1  H22B  428   3.629   2.006   4.870
    6CHL1   C23  429   3.694   1.836   4.752
    6CHL1  H23A  430   3.796   1.879   4.753
    6CHL1  H23B  431   3.704   1.726   4.769
    6CHL1   C24  432   3.631   1.855   4.613
    6CHL1  H24A  433   3.704   1.823   4.535
    6CHL1  H24B  434   3.543   1.788   4.605
    6CHL1   C25  435   3.584   1.998   4.579
    6CHL1   H25  436   3.505   2.026   4.653
    6CHL1   C26  437   3.696   2.102   4.588
    6CHL1  H26A  438   3.781   2.075   4.523
    6CHL1  H26B  439   3.658   2.201   4.557
    6CHL1  H26C  440   3.733   2.111   4.692
    6CHL1   C27  441   3.518   2.000   4.440
    6CHL1  H27A  442   3.472   2.099   4.420
    6CHL1  H27B  443   3.593   1.980   4.361
    6CHL1  H27C  444   3.439   1.922   4.434
    7CHL1    C3  445   3.334   6.286   5.985
    7CHL1    H3  446   3.255   6.365   5.973
    7CHL1    O3  447   3.373   6.282   6.121
    7CHL1   H3'  448   3.401   6.190   6.138
    7CHL1    C4  449   3.276   6.149   5.944
    7CHL1   H4A  450   3.351   6.071   5.969
    7CHL1   H4B  451   3.187   6.129   6.008
    7CHL1    C5  452   3.242   6.142   5.796
    7CHL1    C6  453   3.121   6.103   5.752
    7CHL1    H6  454   3.046   6.072   5.826
    7CHL1    C7  455   3.084   6.090   5.607
    7CHL1   H7A  456   3.029   5.994   5.589
    7CHL1   H7B  457   3.016   6.173   5.578
    7CHL1    C8  458   3.208   6.093   5.513
    7CHL1    H8  459   3.260   5.995   5.521
    7CHL1   C14  460   3.165   6.115   5.368
    7CHL1   H14  461   3.114   6.214   5.370
    7CHL1   C15  462   3.062   6.019   5.305
    7CHL1  H15A  463   3.086   5.914   5.332
    7CHL1  H15B  464   2.959   6.042   5.339
    7CHL1   C16  465   3.079   6.041   5.154
    7CHL1  H16A  466   3.107   5.945   5.105
    7CHL1  H16B  467   2.985   6.078   5.107
    7CHL1   C17  468   3.195   6.144   5.137
    7CHL1   H17  469   3.146   6.244   5.147
    7CHL1   C13  470   3.278   6.129   5.266
    7CHL1   C18  471   3.360   5.998   5.258
    7CHL1  H18A  472   3.443   6.009   5.185
    7CHL1  H18B  473   3.406   5.975   5.357
    7CHL1  H18C  474   3.299   5.911   5.229
    7CHL1   C12  475   3.364   6.249   5.308
    7CHL1  H12A  476   3.454   6.257   5.243
    7CHL1  H12B  477   3.305   6.342   5.298
    7CHL1   C11  478   3.415   6.235   5.452
    7CHL1  H11A  479   3.490   6.154   5.453
    7CHL1  H11B  480   3.467   6.329   5.479
    7CHL1    C9  481   3.303   6.206   5.556
    7CHL1    H9  482   3.240   6.298   5.556
    7CHL1   C10  483   3.354   6.189   5.701
    7CHL1   C19  484   3.466   6.082   5.703
    7CHL1  H19A  485   3.558   6.126   5.660
    7CHL1  H19B  486   3.493   6.051   5.806
    7CHL1  H19C  487   3.436   5.991   5.646
    7CHL1    C1  488   3.414   6.324   5.751
    7CHL1   H1A  489   3.503   6.349   5.690
    7CHL1   H1B  490   3.338   6.404   5.735
    7CHL1    C2  491   3.454   6.324   5.899
    7CHL1   H2A  492   3.491   6.424   5.928
    7CHL1   H2B  493   3.536   6.251   5.916
    7CHL1   C20  494   3.261   6.144   4.998
    7CHL1   H20  495   3.323   6.053   4.985
    7CHL1   C21  496   3.350   6.270   4.982
    7CHL1  H21A  497   3.291   6.361   5.007
    7CHL1  H21B  498   3.387   6.281   4.878
    7CHL1  H21C  499   3.439   6.264   5.046
    7CHL1   C22  500   3.153   6.145   4.886
    7CHL1  H22A  501   3.083   6.060   4.899
    7CHL1  H22B  502   3.096   6.239   4.900
    7CHL1   C23  503   3.198   6.142   4.739
    7CHL1  H23A  504   3.274   6.219   4.718
    7CHL1  H23B  505   3.243   6.042   4.718
    7CHL1   C24  506   3.076   6.167   4.649
    7CHL1  H24A  507   3.001   6.088   4.669
    7CHL1  H24B  508   3.030   6.264   4.679
    7CHL1   C25  509   3.103   6.174   4.498
    7CHL1   H25  510   3.162   6.266   4.476
    7CHL1   C26  511   3.185   6.054   4.449
    7CHL1  H26A  512   3.176   6.042   4.339
    7CHL1  H26B  513   3.292   6.067   4.474
    7CHL1  H26C  514   3.149   5.961   4.497
    7CHL1   C27  515   2.968   6.185   4.424
    7CHL1  H27A  516   2.916   6.278   4.456
    7CHL1  H27B  517   2.982   6.188   4.314
    7CHL1  H27C  518   2.903   6.099   4.450
    8CHL1    C3  519   5.104   1.564   6.005
    8CHL1    H3  520   5.138   1.458   6.016
    8CHL1    O3  521   5.066   1.617   6.131
    8CHL1   H3'  522   5.075   1.547   6.196
    8CHL1    C4  523   5.220   1.649   5.949
    8CHL1   H4A  524   5.190   1.756   5.954
    8CHL1   H4B  525   5.307   1.638   6.017
    8CHL1    C5  526   5.254   1.613   5.806
    8CHL1    C6  527   5.379   1.580   5.769
    8CHL1    H6  528   5.461   1.583   5.842
    8CHL1    C7  529   5.416   1.552   5.626
    8CHL1   H7A  530   5.512   1.600   5.600
    8CHL1   H7B  531   5.427   1.443   5.614
    8CHL1    C8  532   5.306   1.601   5.527
    8CHL1    H8  533   5.308   1.713   5.525
    8CHL1   C14  534   5.336   1.554   5.387
    8CHL1   H14  535   5.331   1.443   5.393
    8CHL1   C15  536   5.473   1.594   5.331
    8CHL1  H15A  537   5.486   1.704   5.342
    8CHL1  H15B  538   5.558   1.544   5.381
    8CHL1   C16  539   5.461   1.558   5.184
    8CHL1  H16A  540   5.492   1.643   5.121
    8CHL1  H16B  541   5.520   1.470   5.155
    8CHL1   C17  542   5.312   1.521   5.163
    8CHL1   H17  543   5.303   1.410   5.178
    8CHL1   C13  544   5.234   1.583   5.279
    8CHL1   C18  545   5.218   1.735   5.257
    8CHL1  H18A  546   5.308   1.779   5.211
    8CHL1  H18B  547   5.132   1.754   5.189
    8CHL1  H18C  548   5.197   1.788   5.352
    8CHL1   C12  549   5.102   1.515   5.321
    8CHL1  H12A  550   5.021   1.537   5.249
    8CHL1  H12B  551   5.117   1.405   5.322
    8CHL1   C11  552   5.059   1.562   5.461
    8CHL1  H11A  553   5.027   1.667   5.449
    8CHL1  H11B  554   4.970   1.502   5.493
    8CHL1    C9  555   5.170   1.550   5.570
    8CHL1    H9  556   5.184   1.440   5.585
    8CHL1   C10  557   5.134   1.609   5.708
    8CHL1   C19  558   5.086   1.754   5.687
    8CHL1  H19A  559   5.068   1.808   5.783
    8CHL1  H19B  560   5.162   1.813   5.631
    8CHL1  H19C  561   4.991   1.757   5.631
    8CHL1    C1  562   5.021   1.522   5.771
    8CHL1   H1A  563   4.931   1.526   5.706
    8CHL1   H1B  564   5.055   1.416   5.775
    8CHL1    C2  565   4.982   1.568   5.912
    8CHL1   H2A  566   4.901   1.504   5.952
    8CHL1   H2B  567   4.943   1.672   5.907
    8CHL1   C20  568   5.275   1.547   5.020
    8CHL1   H20  569   5.304   1.651   4.992
    8CHL1   C21  570   5.125   1.532   5.000
    8CHL1  H21A  571   5.095   1.439   5.052
    8CHL1  H21B  572   5.097   1.524   4.893
    8CHL1  H21C  573   5.069   1.617   5.043
    8CHL1   C22  574   5.355   1.448   4.932
    8CHL1  H22A  575   5.463   1.448   4.956
    8CHL1  H22B  576   5.317   1.344   4.944
    8CHL1   C23  577   5.344   1.493   4.788
    8CHL1  H23A  578   5.243   1.462   4.753
    8CHL1  H23B  579   5.348   1.604   4.787
    8CHL1   C24  580   5.455   1.441   4.698
    8CHL1  H24A  581   5.554   1.459   4.746
    8CHL1  H24B  582   5.445   1.333   4.678
    8CHL1   C25  583   5.449   1.522   4.569
    8CHL1   H25  584   5.447   1.630   4.597
    8CHL1   C26  585   5.571   1.498   4.480
    8CHL1  H26A  586   5.580   1.574   4.400
    8CHL1  H26B  587   5.664   1.499   4.540
    8CHL1  H26C  588   5.561   1.401   4.428
    8CHL1   C27  589   5.318   1.488   4.497
    8CHL1  H27A  590   5.329   1.392   4.443
    8CHL1  H27B  591   5.229   1.477   4.562
    8CHL1  H27C  592   5.294   1.571   4.428
    9CHL1    C3  593   3.808   1.079   5.982
    9CHL1    H3  594   3.902   1.021   5.991
    9CHL1    O3  595   3.768   1.116   6.112
    9CHL1   H3'  596   3.793   1.037   6.164
    9CHL1    C4  597   3.834   1.204   5.896
    9CHL1   H4A  598   3.743   1.267   5.893
    9CHL1   H4B  599   3.912   1.266   5.946
    9CHL1    C5  600   3.876   1.158   5.758
    9CHL1    C6  601   3.996   1.187   5.708
    9CHL1    H6  602   4.064   1.254   5.764
    9CHL1    C7  603   4.039   1.146   5.571
    9CHL1   H7A  604   4.102   1.224   5.524
    9CHL1   H7B  605   4.101   1.054   5.575
    9CHL1    C8  606   3.915   1.119   5.482
    9CHL1    H8  607   3.859   1.214   5.470
    9CHL1   C14  608   3.957   1.070   5.346
    9CHL1   H14  609   4.008   0.972   5.363
    9CHL1   C15  610   4.058   1.157   5.272
    9CHL1  H15A  611   4.037   1.264   5.293
    9CHL1  H15B  612   4.161   1.131   5.302
    9CHL1   C16  613   4.034   1.127   5.125
    9CHL1  H16A  614   3.999   1.220   5.075
    9CHL1  H16B  615   4.127   1.094   5.075
    9CHL1   C17  616   3.920   1.020   5.120
    9CHL1   H17  617   3.971   0.920   5.130
    9CHL1   C13  618   3.842   1.042   5.250
    9CHL1   C18  619   3.751   1.167   5.232
    9CHL1  H18A  620   3.703   1.197   5.327
    9CHL1  H18B  621   3.807   1.253   5.193
    9CHL1  H18C  622   3.669   1.144   5.161
    9CHL1   C12  623   3.766   0.922   5.310
    9CHL1  H12A  624   3.679   0.896   5.246
    9CHL1  H12B  625   3.834   0.835   5.313
    9CHL1   C11  626   3.716   0.954   5.453
    9CHL1  H11A  627   3.634   1.026   5.438
    9CHL1  H11B  628   3.674   0.863   5.498
    9CHL1    C9  629   3.824   1.015   5.549
    9CHL1    H9  630   3.893   0.930   5.573
    9CHL1   C10  631   3.772   1.069   5.685
    9CHL1   C19  632   3.647   1.159   5.658
    9CHL1  H19A  633   3.567   1.101   5.609
    9CHL1  H19B  634   3.603   1.198   5.752
    9CHL1  H19C  635   3.673   1.245   5.594
    9CHL1    C1  636   3.736   0.949   5.776
    9CHL1   H1A  637   3.652   0.892   5.732
    9CHL1   H1B  638   3.824   0.880   5.780
    9CHL1    C2  639   3.700   0.989   5.921
    9CHL1   H2A  640   3.687   0.897   5.983
    9CHL1   H2B  641   3.603   1.044   5.920
    9CHL1   C20  642   3.843   1.021   4.988
    9CHL1   H20  643   3.776   1.110   4.984
    9CHL1   C21  644   3.758   0.894   4.972
    9CHL1  H21A  645   3.818   0.804   4.993
    9CHL1  H21B  646   3.720   0.887   4.868
    9CHL1  H21C  647   3.670   0.896   5.039
    9CHL1   C22  648   3.937   1.037   4.867
    9CHL1  H22A  649   3.876   1.031   4.774
    9CHL1  H22B  650   3.983   1.139   4.868
    9CHL1   C23  651   4.048   0.933   4.858
    9CHL1  H23A  652   4.110   0.928   4.950
    9CHL1  H23B  653   4.003   0.833   4.844
    9CHL1   C24  654   4.138   0.969   4.740
    9CHL1  H24A  655   4.077   0.967   4.647
    9CHL1  H24B  656   4.176   1.073   4.754
    9CHL1   C25  657   4.258   0.879   4.723
    9CHL1   H25  658   4.326   0.896   4.808
    9CHL1   C26  659   4.222   0.730   4.729
    9CHL1  H26A  660   4.177   0.703   4.826
    9CHL1  H26B  661   4.149   0.712   4.648
    9CHL1  H26C  662   4.311   0.666   4.714
    9CHL1   C27  663   4.327   0.919   4.591
    9CHL1  H27A  664   4.360   1.024   4.594
    9CHL1  H27B  665   4.414   0.856   4.573
    9CHL1  H27C  666   4.257   0.906   4.506
   10CHL1    C3  667   6.706   3.463   5.975
   10CHL1    H3  668   6.810   3.496   5.953
   10CHL1    O3  669   6.692   3.443   6.114
   10CHL1   H3'  670   6.723   3.352   6.131
   10CHL1    C4  671   6.607   3.573   5.940
   10CHL1   H4A  672   6.505   3.541   5.971
   10CHL1   H4B  673   6.633   3.663   6.001
   10CHL1    C5  674   6.611   3.601   5.793
   10CHL1    C6  675   6.633   3.723   5.748
   10CHL1    H6  676   6.648   3.801   5.824
   10CHL1    C7  677   6.626   3.761   5.603
   10CHL1   H7A  678   6.566   3.853   5.587
   10CHL1   H7B  679   6.728   3.782   5.566
   10CHL1    C8  680   6.561   3.657   5.511
   10CHL1    H8  681   6.451   3.663   5.520
   10CHL1   C14  682   6.603   3.687   5.368
   10CHL1   H14  683   6.713   3.668   5.366
   10CHL1   C15  684   6.588   3.830   5.313
   10CHL1  H15A  685   6.484   3.866   5.330
   10CHL1  H15B  686   6.659   3.901   5.360
   10CHL1   C16  687   6.615   3.811   5.162
   10CHL1  H16A  688   6.537   3.862   5.102
   10CHL1  H16B  689   6.715   3.853   5.134
   10CHL1   C17  690   6.615   3.657   5.137
   10CHL1   H17  691   6.721   3.624   5.143
   10CHL1   C13  692   6.544   3.596   5.262
   10CHL1   C18  693   6.391   3.618   5.248
   10CHL1  H18A  694   6.366   3.722   5.219
   10CHL1  H18B  695   6.349   3.550   5.172
   10CHL1  H18C  696   6.339   3.597   5.344
   10CHL1   C12  697   6.578   3.450   5.303
   10CHL1  H12A  698   6.516   3.383   5.240
   10CHL1  H12B  699   6.685   3.431   5.283
   10CHL1   C11  700   6.548   3.414   5.449
   10CHL1  H11A  701   6.437   3.412   5.459
   10CHL1  H11B  702   6.587   3.313   5.470
   10CHL1    C9  703   6.608   3.516   5.549
   10CHL1    H9  704   6.718   3.515   5.533
   10CHL1   C10  705   6.587   3.484   5.700
   10CHL1   C19  706   6.439   3.460   5.723
   10CHL1  H19A  707   6.379   3.549   5.693
   10CHL1  H19B  708   6.408   3.377   5.660
   10CHL1  H19C  709   6.411   3.433   5.827
   10CHL1    C1  710   6.674   3.361   5.742
   10CHL1   H1A  711   6.638   3.271   5.689
   10CHL1   H1B  712   6.779   3.380   5.710
   10CHL1    C2  713   6.674   3.334   5.895
   10CHL1   H2A  714   6.747   3.254   5.918
   10CHL1   H2B  715   6.573   3.298   5.923
   10CHL1   C20  716   6.563   3.615   5.000
   10CHL1   H20  717   6.458   3.651   4.989
   10CHL1   C21  718   6.565   3.462   4.997
   10CHL1  H21A  719   6.598   3.426   4.900
   10CHL1  H21B  720   6.466   3.420   5.022
   10CHL1  H21C  721   6.643   3.422   5.065
   10CHL1   C22  722   6.639   3.669   4.874
   10CHL1  H22A  723   6.697   3.760   4.898
   10CHL1  H22B  724   6.713   3.592   4.843
   10CHL1   C23  725   6.541   3.697   4.757
   10CHL1  H23A  726   6.459   3.622   4.762
   10CHL1  H23B  727   6.496   3.797   4.776
   10CHL1   C24  728   6.600   3.692   4.614
   10CHL1  H24A  729   6.649   3.789   4.595
   10CHL1  H24B  730   6.679   3.613   4.610
   10CHL1   C25  731   6.502   3.665   4.497
   10CHL1   H25  732   6.473   3.558   4.501
   10CHL1   C26  733   6.369   3.743   4.502
   10CHL1  H26A  734   6.347   3.790   4.404
   10CHL1  H26B  735   6.285   3.672   4.524
   10CHL1  H26C  736   6.369   3.821   4.580
   10CHL1   C27  737   6.569   3.679   4.359
   10CHL1  H27A  738   6.651   3.606   4.348
   10CHL1  H27B  739   6.494   3.658   4.279
   10CHL1  H27C  740   6.609   3.782   4.344
   11CHL1    C3  741   6.974   2.716   6.006
   11CHL1    H3  742   6.921   2.622   5.975
   11CHL1    O3  743   7.027   2.699   6.136
   11CHL1   H3'  744   7.099   2.765   6.142
   11CHL1    C4  745   7.089   2.745   5.909
   11CHL1   H4A  746   7.147   2.832   5.945
   11CHL1   H4B  747   7.158   2.658   5.911
   11CHL1    C5  748   7.040   2.778   5.770
   11CHL1    C6  749   7.084   2.707   5.665
   11CHL1    H6  750   7.157   2.626   5.681
   11CHL1    C7  751   7.046   2.736   5.523
   11CHL1   H7A  752   7.136   2.737   5.458
   11CHL1   H7B  753   6.980   2.654   5.486
   11CHL1    C8  754   6.971   2.870   5.506
   11CHL1    H8  755   7.045   2.953   5.510
   11CHL1   C14  756   6.901   2.871   5.371
   11CHL1   H14  757   6.830   2.784   5.374
   11CHL1   C15  758   6.988   2.849   5.246
   11CHL1  H15A  759   7.075   2.918   5.251
   11CHL1  H15B  760   7.025   2.744   5.239
   11CHL1   C16  761   6.894   2.887   5.131
   11CHL1  H16A  762   6.947   2.959   5.064
   11CHL1  H16B  763   6.864   2.798   5.072
   11CHL1   C17  764   6.768   2.955   5.196
   11CHL1   H17  765   6.691   2.875   5.206
   11CHL1   C13  766   6.813   2.992   5.340
   11CHL1   C18  767   6.898   3.122   5.331
   11CHL1  H18A  768   6.960   3.135   5.422
   11CHL1  H18B  769   6.965   3.120   5.243
   11CHL1  H18C  770   6.831   3.210   5.321
   11CHL1   C12  771   6.707   3.000   5.452
   11CHL1  H12A  772   6.641   3.088   5.442
   11CHL1  H12B  773   6.643   2.909   5.449
   11CHL1   C11  774   6.774   3.010   5.591
   11CHL1  H11A  775   6.830   3.105   5.596
   11CHL1  H11B  776   6.694   3.013   5.668
   11CHL1    C9  777   6.869   2.891   5.620
   11CHL1    H9  778   6.803   2.800   5.616
   11CHL1   C10  779   6.933   2.890   5.761
   11CHL1   C19  780   7.001   3.027   5.789
   11CHL1  H19A  781   6.925   3.108   5.794
   11CHL1  H19B  782   7.054   3.027   5.886
   11CHL1  H19C  783   7.074   3.052   5.710
   11CHL1    C1  784   6.822   2.867   5.869
   11CHL1   H1A  785   6.759   2.958   5.876
   11CHL1   H1B  786   6.756   2.784   5.835
   11CHL1    C2  787   6.875   2.832   6.009
   11CHL1   H2A  788   6.790   2.806   6.076
   11CHL1   H2B  789   6.926   2.921   6.052
   11CHL1   C20  790   6.709   3.065   5.108
   11CHL1   H20  791   6.787   3.144   5.092
   11CHL1   C21  792   6.590   3.130   5.179
   11CHL1  H21A  793   6.544   3.207   5.115
   11CHL1  H21B  794   6.622   3.182   5.271
   11CHL1  H21C  795   6.512   3.054   5.204
   11CHL1   C22  796   6.664   3.020   4.966
   11CHL1  H22A  797   6.749   2.973   4.912
   11CHL1  H22B  798   6.582   2.945   4.975
   11CHL1   C23  799   6.613   3.138   4.882
   11CHL1  H23A  800   6.509   3.164   4.913
   11CHL1  H23B  801   6.677   3.227   4.902
   11CHL1   C24  802   6.614   3.112   4.731
   11CHL1  H24A  803   6.714   3.134   4.690
   11CHL1  H24B  804   6.590   3.005   4.712
   11CHL1   C25  805   6.508   3.195   4.658
   11CHL1   H25  806   6.410   3.161   4.695
   11CHL1   C26  807   6.514   3.345   4.688
   11CHL1  H26A  808   6.617   3.383   4.703
   11CHL1  H26B  809   6.469   3.401   4.605
   11CHL1  H26C  810   6.450   3.366   4.777
   11CHL1   C27  811   6.510   3.171   4.507
   11CHL1  H27A  812   6.611   3.194   4.466
   11CHL1  H27B  813   6.484   3.065   4.484
   11CHL1  H27C  814   6.435   3.237   4.459
   12CHL1    C3  815   1.580   0.862   5.972
   12CHL1    H3  816   1.560   0.965   5.933
   12CHL1    O3  817   1.557   0.861   6.112
   12CHL1   H3'  818   1.625   0.800   6.144
   12CHL1    C4  819   1.488   0.762   5.900
   12CHL1   H4A  820   1.506   0.661   5.942
   12CHL1   H4B  821   1.382   0.788   5.923
   12CHL1    C5  822   1.515   0.762   5.750
   12CHL1    C6  823   1.419   0.790   5.660
   12CHL1    H6  824   1.316   0.810   5.693
   12CHL1    C7  825   1.444   0.796   5.511
   12CHL1   H7A  826   1.364   0.745   5.454
   12CHL1   H7B  827   1.446   0.903   5.481
   12CHL1    C8  828   1.582   0.740   5.469
   12CHL1    H8  829   1.574   0.629   5.470
   12CHL1   C14  830   1.621   0.790   5.330
   12CHL1   H14  831   1.629   0.901   5.338
   12CHL1   C15  832   1.527   0.765   5.211
   12CHL1  H15A  833   1.485   0.662   5.216
   12CHL1  H15B  834   1.444   0.838   5.207
   12CHL1   C16  835   1.620   0.777   5.088
   12CHL1  H16A  836   1.612   0.685   5.027
   12CHL1  H16B  837   1.593   0.865   5.026
   12CHL1   C17  838   1.766   0.794   5.143
   12CHL1   H17  839   1.784   0.904   5.150
   12CHL1   C13  840   1.758   0.741   5.285
   12CHL1   C18  841   1.761   0.586   5.282
   12CHL1  H18A  842   1.734   0.542   5.380
   12CHL1  H18B  843   1.691   0.546   5.206
   12CHL1  H18C  844   1.864   0.551   5.259
   12CHL1   C12  845   1.863   0.801   5.378
   12CHL1  H12A  846   1.963   0.766   5.350
   12CHL1  H12B  847   1.861   0.912   5.372
   12CHL1   C11  848   1.835   0.756   5.521
   12CHL1  H11A  849   1.858   0.648   5.527
   12CHL1  H11B  850   1.907   0.811   5.585
   12CHL1    C9  851   1.690   0.786   5.567
   12CHL1    H9  852   1.683   0.897   5.565
   12CHL1   C10  853   1.663   0.743   5.712
   12CHL1   C19  854   1.700   0.593   5.730
   12CHL1  H19A  855   1.677   0.555   5.832
   12CHL1  H19B  856   1.645   0.529   5.657
   12CHL1  H19C  857   1.808   0.576   5.714
   12CHL1    C1  858   1.756   0.832   5.800
   12CHL1   H1A  859   1.861   0.803   5.784
   12CHL1   H1B  860   1.745   0.938   5.768
   12CHL1    C2  861   1.726   0.824   5.949
   12CHL1   H2A  862   1.797   0.893   6.001
   12CHL1   H2B  863   1.744   0.721   5.986
   12CHL1   C20  864   1.876   0.736   5.055
   12CHL1   H20  865   1.867   0.625   5.051
   12CHL1   C21  866   2.020   0.771   5.100
   12CHL1  H21A  867   2.027   0.877   5.133
   12CHL1  H21B  868   2.092   0.757   5.016
   12CHL1  H21C  869   2.055   0.705   5.182
   12CHL1   C22  870   1.862   0.786   4.912
   12CHL1  H22A  871   1.755   0.799   4.886
   12CHL1  H22B  872   1.906   0.888   4.904
   12CHL1   C23  873   1.924   0.689   4.813
   12CHL1  H23A  874   2.005   0.745   4.762
   12CHL1  H23B  875   1.972   0.603   4.864
   12CHL1   C24  876   1.815   0.638   4.720
   12CHL1  H24A  877   1.767   0.548   4.766
   12CHL1  H24B  878   1.733   0.713   4.711
   12CHL1   C25  879   1.857   0.606   4.577
   12CHL1   H25  880   1.827   0.501   4.564
   12CHL1   C26  881   1.774   0.688   4.478
   12CHL1  H26A  882   1.673   0.644   4.469
   12CHL1  H26B  883   1.759   0.791   4.514
   12CHL1  H26C  884   1.822   0.692   4.379
   12CHL1   C27  885   2.007   0.617   4.549
   12CHL1  H27A  886   2.030   0.587   4.445
   12CHL1  H27B  887   2.041   0.721   4.561
   12CHL1  H27C  888   2.065   0.553   4.618
   13CHL1    C3  889   7.577   3.309   6.004
   13CHL1    H3  890   7.586   3.198   5.991
   13CHL1    O3  891   7.599   3.341   6.139
   13CHL1   H3'  892   7.694   3.345   6.150
   13CHL1    C4  893   7.684   3.381   5.924
   13CHL1   H4A  894   7.677   3.489   5.946
   13CHL1   H4B  895   7.785   3.348   5.958
   13CHL1    C5  896   7.664   3.358   5.777
   13CHL1    C6  897   7.760   3.300   5.705
   13CHL1    H6  898   7.856   3.275   5.752
   13CHL1    C7  899   7.749   3.279   5.558
   13CHL1   H7A  900   7.844   3.308   5.507
   13CHL1   H7B  901   7.731   3.171   5.536
   13CHL1    C8  902   7.633   3.363   5.497
   13CHL1    H8  903   7.665   3.469   5.493
   13CHL1   C14  904   7.604   3.312   5.360
   13CHL1   H14  905   7.568   3.207   5.374
   13CHL1   C15  906   7.725   3.299   5.267
   13CHL1  H15A  907   7.787   3.391   5.273
   13CHL1  H15B  908   7.785   3.213   5.300
   13CHL1   C16  909   7.661   3.283   5.130
   13CHL1  H16A  910   7.701   3.362   5.061
   13CHL1  H16B  911   7.680   3.184   5.085
   13CHL1   C17  912   7.508   3.302   5.153
   13CHL1   H17  913   7.467   3.201   5.178
   13CHL1   C13  914   7.495   3.383   5.282
   13CHL1   C18  915   7.532   3.531   5.255
   13CHL1  H18A  916   7.626   3.540   5.198
   13CHL1  H18B  917   7.451   3.581   5.197
   13CHL1  H18C  918   7.545   3.586   5.350
   13CHL1   C12  919   7.363   3.367   5.361
   13CHL1  H12A  920   7.282   3.425   5.314
   13CHL1  H12B  921   7.334   3.260   5.362
   13CHL1   C11  922   7.382   3.416   5.506
   13CHL1  H11A  923   7.395   3.526   5.499
   13CHL1  H11B  924   7.289   3.397   5.563
   13CHL1    C9  925   7.504   3.351   5.578
   13CHL1    H9  926   7.482   3.242   5.583
   13CHL1   C10  927   7.524   3.398   5.723
   13CHL1   C19  928   7.511   3.553   5.726
   13CHL1  H19A  929   7.407   3.584   5.703
   13CHL1  H19B  930   7.536   3.596   5.824
   13CHL1  H19C  931   7.578   3.599   5.649
   13CHL1    C1  932   7.414   3.334   5.813
   13CHL1   H1A  933   7.316   3.377   5.785
   13CHL1   H1B  934   7.411   3.225   5.793
   13CHL1    C2  935   7.437   3.355   5.963
   13CHL1   H2A  936   7.361   3.300   6.022
   13CHL1   H2B  937   7.426   3.463   5.987
   13CHL1   C20  938   7.440   3.346   5.026
   13CHL1   H20  939   7.487   3.440   4.988
   13CHL1   C21  940   7.290   3.373   5.046
   13CHL1  H21A  941   7.241   3.285   5.095
   13CHL1  H21B  942   7.241   3.390   4.948
   13CHL1  H21C  943   7.274   3.463   5.107
   13CHL1   C22  944   7.460   3.234   4.922
   13CHL1  H22A  945   7.491   3.138   4.968
   13CHL1  H22B  946   7.359   3.213   4.883
   13CHL1   C23  947   7.560   3.269   4.812
   13CHL1  H23A  948   7.548   3.376   4.782
   13CHL1  H23B  949   7.663   3.260   4.851
   13CHL1   C24  950   7.540   3.178   4.690
   13CHL1  H24A  951   7.622   3.197   4.617
   13CHL1  H24B  952   7.548   3.072   4.722
   13CHL1   C25  953   7.404   3.205   4.623
   13CHL1   H25  954   7.323   3.208   4.699
   13CHL1   C26  955   7.403   3.345   4.559
   13CHL1  H26A  956   7.320   3.355   4.486
   13CHL1  H26B  957   7.390   3.423   4.637
   13CHL1  H26C  958   7.499   3.366   4.508
   13CHL1   C27  959   7.360   3.090   4.531
   13CHL1  H27A  960   7.278   3.125   4.464
   13CHL1  H27B  961   7.443   3.051   4.470
   13CHL1  H27C  962   7.321   3.006   4.592
   14CHL1    C3  963   1.045   0.327   6.005
   14CHL1    H3  964   0.953   0.267   6.024
   14CHL1    O3  965   1.109   0.355   6.128
   14CHL1   H3'  966   1.129   0.269   6.168
   14CHL1    C4  967   1.141   0.247   5.917
   14CHL1   H4A  968   1.240   0.298   5.911
   14CHL1   H4B  969   1.160   0.149   5.966
   14CHL1    C5  970   1.081   0.233   5.780
   14CHL1    C6  971   1.055   0.111   5.731
   14CHL1    H6  972   1.082   0.021   5.788
   14CHL1    C7  973   1.003   0.093   5.593
   14CHL1   H7A  974   1.043   0.001   5.547
   14CHL1   H7B  975   0.893   0.082   5.596
   14CHL1    C8  976   1.038   0.217   5.506
   14CHL1    H8  977   1.149   0.226   5.497
   14CHL1   C14  978   0.979   0.196   5.371
   14CHL1   H14  979   0.875   0.183   5.402
   14CHL1   C15  980   1.018   0.070   5.298
   14CHL1  H15A  981   1.129   0.076   5.298
   14CHL1  H15B  982   0.978  -0.023   5.342
   14CHL1   C16  983   0.979   0.089   5.154
   14CHL1  H16A  984   1.072   0.073   5.095
   14CHL1  H16B  985   0.905   0.015   5.120
   14CHL1   C17  986   0.930   0.235   5.142
   14CHL1   H17  987   0.820   0.235   5.154
   14CHL1   C13  988   0.982   0.309   5.269
   14CHL1   C18  989   1.129   0.352   5.244
   14CHL1  H18A  990   1.179   0.381   5.338
   14CHL1  H18B  991   1.187   0.269   5.199
   14CHL1  H18C  992   1.132   0.439   5.175
   14CHL1   C12  993   0.897   0.420   5.334
   14CHL1  H12A  994   0.887   0.508   5.267
   14CHL1  H12B  995   0.794   0.380   5.351
   14CHL1   C11  996   0.955   0.460   5.472
   14CHL1  H11A  997   1.051   0.511   5.453
   14CHL1  H11B  998   0.887   0.535   5.519
   14CHL1    C9  999   0.974   0.339   5.570
   14CHL1    H9 1000   0.870   0.308   5.595
   14CHL1   C10 1001   1.044   0.365   5.706
   14CHL1   C19 1002   1.172   0.448   5.678
   14CHL1  H19A 1003   1.145   0.550   5.645
   14CHL1  H19B 1004   1.235   0.459   5.769
   14CHL1  H19C 1005   1.234   0.400   5.600
   14CHL1    C1 1006   0.947   0.440   5.801
   14CHL1   H1A 1007   0.920   0.538   5.756
   14CHL1   H1B 1008   0.852   0.381   5.810
   14CHL1    C2 1009   1.004   0.460   5.942
   14CHL1   H2A 1010   0.928   0.509   6.007
   14CHL1   H2B 1011   1.092   0.528   5.936
   14CHL1   C20 1012   0.959   0.288   5.002
   14CHL1   H20 1013   1.064   0.324   4.997
   14CHL1   C21 1014   0.861   0.404   4.977
   14CHL1  H21A 1015   0.870   0.482   5.054
   14CHL1  H21B 1016   0.757   0.365   4.977
   14CHL1  H21C 1017   0.879   0.451   4.878
   14CHL1   C22 1018   0.943   0.182   4.888
   14CHL1  H22A 1019   0.989   0.083   4.909
   14CHL1  H22B 1020   0.835   0.164   4.872
   14CHL1   C23 1021   1.008   0.228   4.757
   14CHL1  H23A 1022   0.992   0.337   4.750
   14CHL1  H23B 1023   1.118   0.211   4.761
   14CHL1   C24 1024   0.945   0.159   4.636
   14CHL1  H24A 1025   0.975   0.052   4.634
   14CHL1  H24B 1026   0.835   0.161   4.652
   14CHL1   C25 1027   0.975   0.223   4.499
   14CHL1   H25 1028   1.075   0.186   4.467
   14CHL1   C26 1029   0.867   0.180   4.399
   14CHL1  H26A 1030   0.887   0.223   4.298
   14CHL1  H26B 1031   0.863   0.070   4.392
   14CHL1  H26C 1032   0.767   0.215   4.430
   14CHL1   C27 1033   0.982   0.376   4.499
   14CHL1  H27A 1034   0.997   0.413   4.395
   14CHL1  H27B 1035   0.889   0.420   4.540
   14CHL1  H27C 1036   1.069   0.410   4.560
   15CHL1    C3 1037   0.024   6.766   6.031
   15CHL1    H3 1038   0.134   6.782   6.047
   15CHL1    O3 1039  -0.038   6.735   6.156
   15CHL1   H3' 1040   0.034   6.693   6.205
   15CHL1    C4 1041  -0.037   6.895   5.974
   15CHL1   H4A 1042  -0.148   6.884   5.977
   15CHL1   H4B 1043  -0.011   6.977   6.045
   15CHL1    C5 1044   0.008   6.926   5.833
   15CHL1    C6 1045   0.062   7.044   5.801
   15CHL1    H6 1046   0.075   7.123   5.877
   15CHL1    C7 1047   0.099   7.080   5.660
   15CHL1   H7A 1048   0.057   7.180   5.635
   15CHL1   H7B 1049   0.209   7.084   5.654
   15CHL1    C8 1050   0.052   6.983   5.550
   15CHL1    H8 1051  -0.056   7.003   5.531
   15CHL1   C14 1052   0.132   7.006   5.422
   15CHL1   H14 1053   0.238   6.980   5.449
   15CHL1   C15 1054   0.141   7.148   5.365
   15CHL1  H15A 1055   0.039   7.193   5.360
   15CHL1  H15B 1056   0.206   7.216   5.423
   15CHL1   C16 1057   0.194   7.126   5.223
   15CHL1  H16A 1058   0.126   7.178   5.153
   15CHL1  H16B 1059   0.297   7.165   5.209
   15CHL1   C17 1060   0.189   6.972   5.196
   15CHL1   H17 1061   0.289   6.932   5.224
   15CHL1   C13 1062   0.095   6.914   5.305
   15CHL1   C18 1063  -0.052   6.937   5.263
   15CHL1  H18A 1064  -0.069   7.041   5.227
   15CHL1  H18B 1065  -0.082   6.866   5.184
   15CHL1  H18C 1066  -0.121   6.919   5.348
   15CHL1   C12 1067   0.122   6.769   5.352
   15CHL1  H12A 1068   0.092   6.698   5.273
   15CHL1  H12B 1069   0.231   6.757   5.371
   15CHL1   C11 1070   0.045   6.737   5.482
   15CHL1  H11A 1071  -0.063   6.736   5.458
   15CHL1  H11B 1072   0.072   6.635   5.516
   15CHL1    C9 1073   0.070   6.839   5.597
   15CHL1    H9 1074   0.179   6.830   5.622
   15CHL1   C10 1075  -0.005   6.810   5.731
   15CHL1   C19 1076  -0.156   6.796   5.701
   15CHL1  H19A 1077  -0.196   6.887   5.651
   15CHL1  H19B 1078  -0.177   6.709   5.636
   15CHL1  H19C 1079  -0.213   6.782   5.794
   15CHL1    C1 1080   0.051   6.679   5.794
   15CHL1   H1A 1081   0.024   6.594   5.728
   15CHL1   H1B 1082   0.162   6.686   5.795
   15CHL1    C2 1083   0.004   6.647   5.937
   15CHL1   H2A 1084   0.062   6.560   5.976
   15CHL1   H2B 1085  -0.103   6.618   5.935
   15CHL1   C20 1086   0.173   6.946   5.044
   15CHL1   H20 1087   0.086   7.006   5.008
   15CHL1   C21 1088   0.136   6.800   5.010
   15CHL1  H21A 1089   0.149   6.781   4.901
   15CHL1  H21B 1090   0.029   6.781   5.034
   15CHL1  H21C 1091   0.195   6.726   5.067
   15CHL1   C22 1092   0.298   7.003   4.969
   15CHL1  H22A 1093   0.283   7.112   4.970
   15CHL1  H22B 1094   0.388   6.989   5.030
   15CHL1   C23 1095   0.329   6.970   4.820
   15CHL1  H23A 1096   0.361   6.865   4.808
   15CHL1  H23B 1097   0.234   6.985   4.768
   15CHL1   C24 1098   0.423   7.071   4.749
   15CHL1  H24A 1099   0.363   7.164   4.752
   15CHL1  H24B 1100   0.513   7.090   4.810
   15CHL1   C25 1101   0.458   7.065   4.596
   15CHL1   H25 1102   0.493   7.169   4.570
   15CHL1   C26 1103   0.574   6.975   4.556
   15CHL1  H26A 1104   0.587   6.976   4.446
   15CHL1  H26B 1105   0.667   7.009   4.603
   15CHL1  H26C 1106   0.556   6.871   4.587
   15CHL1   C27 1107   0.341   7.035   4.501
   15CHL1  H27A 1108   0.378   7.005   4.401
   15CHL1  H27B 1109   0.281   6.951   4.540
   15CHL1  H27C 1110   0.277   7.124   4.485
   16CHL1    C3 1111   4.558   4.236   2.519
   16CHL1    H3 1112   4.468   4.171   2.535
   16CHL1    O3 1113   4.564   4.268   2.381
   16CHL1   H3' 1114   4.513   4.351   2.374
   16CHL1    C4 1115   4.545   4.365   2.600
   16CHL1   H4A 1116   4.636   4.427   2.586
   16CHL1   H4B 1117   4.458   4.424   2.561
   16CHL1    C5 1118   4.526   4.325   2.745
   16CHL1    C6 1119   4.408   4.345   2.805
   16CHL1    H6 1120   4.327   4.396   2.751
   16CHL1    C7 1121   4.382   4.304   2.946
   16CHL1   H7A 1122   4.312   4.371   2.997
   16CHL1   H7B 1123   4.335   4.203   2.948
   16CHL1    C8 1124   4.515   4.298   3.024
   16CHL1    H8 1125   4.563   4.399   3.024
   16CHL1   C14 1126   4.486   4.258   3.167
   16CHL1   H14 1127   4.430   4.161   3.162
   16CHL1   C15 1128   4.397   4.353   3.248
   16CHL1  H15A 1129   4.437   4.456   3.235
   16CHL1  H15B 1130   4.291   4.353   3.216
   16CHL1   C16 1131   4.417   4.308   3.392
   16CHL1  H16A 1132   4.433   4.398   3.456
   16CHL1  H16B 1133   4.328   4.253   3.429
   16CHL1   C17 1134   4.542   4.214   3.391
   16CHL1   H17 1135   4.502   4.110   3.390
   16CHL1   C13 1136   4.609   4.233   3.253
   16CHL1   C18 1137   4.701   4.358   3.261
   16CHL1  H18A 1138   4.795   4.332   3.314
   16CHL1  H18B 1139   4.729   4.396   3.161
   16CHL1  H18C 1140   4.652   4.441   3.317
   16CHL1   C12 1141   4.681   4.113   3.189
   16CHL1  H12A 1142   4.769   4.084   3.249
   16CHL1  H12B 1143   4.611   4.027   3.188
   16CHL1   C11 1144   4.724   4.146   3.044
   16CHL1  H11A 1145   4.805   4.221   3.051
   16CHL1  H11B 1146   4.767   4.055   2.997
   16CHL1    C9 1147   4.607   4.198   2.954
   16CHL1    H9 1148   4.543   4.107   2.939
   16CHL1   C10 1149   4.644   4.248   2.810
   16CHL1   C19 1150   4.769   4.339   2.820
   16CHL1  H19A 1151   4.857   4.282   2.857
   16CHL1  H19B 1152   4.798   4.379   2.721
   16CHL1  H19C 1153   4.751   4.424   2.890
   16CHL1    C1 1154   4.674   4.128   2.716
   16CHL1   H1A 1155   4.766   4.076   2.750
   16CHL1   H1B 1156   4.590   4.057   2.728
   16CHL1    C2 1157   4.683   4.159   2.565
   16CHL1   H2A 1158   4.692   4.064   2.508
   16CHL1   H2B 1159   4.773   4.221   2.544
   16CHL1   C20 1160   4.627   4.232   3.518
   16CHL1   H20 1161   4.676   4.332   3.518
   16CHL1   C21 1162   4.737   4.124   3.524
   16CHL1  H21A 1163   4.791   4.131   3.621
   16CHL1  H21B 1164   4.812   4.139   3.444
   16CHL1  H21C 1165   4.693   4.023   3.515
   16CHL1   C22 1166   4.541   4.225   3.647
   16CHL1  H22A 1167   4.438   4.191   3.626
   16CHL1  H22B 1168   4.588   4.149   3.714
   16CHL1   C23 1169   4.534   4.354   3.729
   16CHL1  H23A 1170   4.637   4.382   3.759
   16CHL1  H23B 1171   4.492   4.437   3.669
   16CHL1   C24 1172   4.445   4.330   3.852
   16CHL1  H24A 1173   4.339   4.327   3.819
   16CHL1  H24B 1174   4.469   4.230   3.895
   16CHL1   C25 1175   4.461   4.433   3.965
   16CHL1   H25 1176   4.448   4.535   3.922
   16CHL1   C26 1177   4.354   4.412   4.073
   16CHL1  H26A 1178   4.253   4.414   4.028
   16CHL1  H26B 1179   4.368   4.313   4.123
   16CHL1  H26C 1180   4.361   4.491   4.150
   16CHL1   C27 1181   4.602   4.422   4.027
   16CHL1  H27A 1182   4.627   4.316   4.049
   16CHL1  H27B 1183   4.678   4.463   3.958
   16CHL1  H27C 1184   4.605   4.478   4.122
   17CHL1    C3 1185   3.140   4.863   2.462
   17CHL1    H3 1186   3.218   4.930   2.420
   17CHL1    O3 1187   3.053   4.822   2.357
   17CHL1   H3' 1188   3.109   4.786   2.286
   17CHL1    C4 1189   3.210   4.743   2.530
   17CHL1   H4A 1190   3.140   4.657   2.536
   17CHL1   H4B 1191   3.292   4.709   2.461
   17CHL1    C5 1192   3.263   4.767   2.670
   17CHL1    C6 1193   3.384   4.720   2.707
   17CHL1    H6 1194   3.446   4.668   2.633
   17CHL1    C7 1195   3.428   4.712   2.850
   17CHL1   H7A 1196   3.449   4.608   2.877
   17CHL1   H7B 1197   3.523   4.764   2.866
   17CHL1    C8 1198   3.325   4.765   2.951
   17CHL1    H8 1199   3.251   4.687   2.975
   17CHL1   C14 1200   3.398   4.797   3.078
   17CHL1   H14 1201   3.475   4.874   3.050
   17CHL1   C15 1202   3.477   4.684   3.145
   17CHL1  H15A 1203   3.410   4.605   3.180
   17CHL1  H15B 1204   3.555   4.637   3.083
   17CHL1   C16 1205   3.524   4.746   3.275
   17CHL1  H16A 1206   3.523   4.668   3.353
   17CHL1  H16B 1207   3.627   4.785   3.265
   17CHL1   C17 1208   3.426   4.866   3.296
   17CHL1   H17 1209   3.487   4.954   3.264
   17CHL1   C13 1210   3.314   4.861   3.187
   17CHL1   C18 1211   3.195   4.772   3.229
   17CHL1  H18A 1212   3.133   4.742   3.142
   17CHL1  H18B 1213   3.227   4.679   3.279
   17CHL1  H18C 1214   3.128   4.828   3.297
   17CHL1   C12 1215   3.261   4.994   3.128
   17CHL1  H12A 1216   3.198   5.046   3.202
   17CHL1  H12B 1217   3.346   5.060   3.102
   17CHL1   C11 1218   3.176   4.969   3.001
   17CHL1  H11A 1219   3.082   4.917   3.029
   17CHL1  H11B 1220   3.147   5.068   2.960
   17CHL1    C9 1221   3.253   4.887   2.894
   17CHL1    H9 1222   3.335   4.956   2.860
   17CHL1   C10 1223   3.173   4.847   2.767
   17CHL1   C19 1224   3.049   4.760   2.804
   17CHL1  H19A 1225   2.974   4.822   2.858
   17CHL1  H19B 1226   3.001   4.718   2.714
   17CHL1  H19C 1227   3.076   4.675   2.869
   17CHL1    C1 1228   3.127   4.974   2.693
   17CHL1   H1A 1229   3.056   5.029   2.759
   17CHL1   H1B 1230   3.215   5.040   2.676
   17CHL1    C2 1231   3.056   4.944   2.561
   17CHL1   H2A 1232   3.031   5.041   2.512
   17CHL1   H2B 1233   2.961   4.889   2.582
   17CHL1   C20 1234   3.392   4.894   3.441
   17CHL1   H20 1235   3.489   4.923   3.489
   17CHL1   C21 1236   3.340   4.771   3.521
   17CHL1  H21A 1237   3.409   4.685   3.514
   17CHL1  H21B 1238   3.240   4.740   3.488
   17CHL1  H21C 1239   3.334   4.796   3.629
   17CHL1   C22 1240   3.299   5.014   3.454
   17CHL1  H22A 1241   3.319   5.088   3.374
   17CHL1  H22B 1242   3.194   4.979   3.444
   17CHL1   C23 1243   3.320   5.085   3.586
   17CHL1  H23A 1244   3.327   5.009   3.667
   17CHL1  H23B 1245   3.417   5.141   3.582
   17CHL1   C24 1246   3.208   5.183   3.619
   17CHL1  H24A 1247   3.223   5.276   3.560
   17CHL1  H24B 1248   3.109   5.140   3.591
   17CHL1   C25 1249   3.205   5.215   3.768
   17CHL1   H25 1250   3.148   5.134   3.820
   17CHL1   C26 1251   3.344   5.223   3.833
   17CHL1  H26A 1252   3.408   5.290   3.772
   17CHL1  H26B 1253   3.334   5.264   3.936
   17CHL1  H26C 1254   3.392   5.124   3.840
   17CHL1   C27 1255   3.136   5.349   3.788
   17CHL1  H27A 1256   3.146   5.417   3.702
   17CHL1  H27B 1257   3.028   5.334   3.811
   17CHL1  H27C 1258   3.188   5.399   3.872
   18CHL1    C3 1259   4.045   2.729   2.502
   18CHL1    H3 1260   3.958   2.666   2.531
   18CHL1    O3 1261   4.056   2.735   2.361
   18CHL1   H3' 1262   3.965   2.741   2.330
   18CHL1    C4 1263   4.024   2.873   2.548
   18CHL1   H4A 1264   4.104   2.937   2.505
   18CHL1   H4B 1265   3.928   2.910   2.504
   18CHL1    C5 1266   4.025   2.882   2.698
   18CHL1    C6 1267   3.922   2.939   2.763
   18CHL1    H6 1268   3.838   2.982   2.706
   18CHL1    C7 1269   3.921   2.961   2.911
   18CHL1   H7A 1270   3.894   3.067   2.931
   18CHL1   H7B 1271   3.846   2.896   2.960
   18CHL1    C8 1272   4.061   2.936   2.975
   18CHL1    H8 1273   4.122   3.024   2.946
   18CHL1   C14 1274   4.050   2.925   3.125
   18CHL1   H14 1275   3.999   2.828   3.147
   18CHL1   C15 1276   3.963   3.031   3.192
   18CHL1  H15A 1277   3.974   3.129   3.140
   18CHL1  H15B 1278   3.857   2.999   3.190
   18CHL1   C16 1279   4.018   3.042   3.334
   18CHL1  H16A 1280   4.045   3.149   3.350
   18CHL1  H16B 1281   3.943   3.012   3.410
   18CHL1   C17 1282   4.145   2.952   3.342
   18CHL1   H17 1283   4.114   2.855   3.387
   18CHL1   C13 1284   4.185   2.921   3.195
   18CHL1   C18 1285   4.277   3.033   3.142
   18CHL1  H18A 1286   4.363   3.057   3.206
   18CHL1  H18B 1287   4.319   3.007   3.043
   18CHL1  H18C 1288   4.215   3.123   3.127
   18CHL1   C12 1289   4.243   2.782   3.161
   18CHL1  H12A 1290   4.344   2.769   3.205
   18CHL1  H12B 1291   4.177   2.703   3.204
   18CHL1   C11 1292   4.251   2.761   3.006
   18CHL1  H11A 1293   4.342   2.815   2.973
   18CHL1  H11B 1294   4.269   2.654   2.986
   18CHL1    C9 1295   4.127   2.809   2.923
   18CHL1    H9 1296   4.050   2.729   2.939
   18CHL1   C10 1297   4.147   2.819   2.769
   18CHL1   C19 1298   4.268   2.911   2.737
   18CHL1  H19A 1299   4.283   2.922   2.628
   18CHL1  H19B 1300   4.252   3.013   2.778
   18CHL1  H19C 1301   4.362   2.871   2.779
   18CHL1    C1 1302   4.171   2.676   2.714
   18CHL1   H1A 1303   4.267   2.636   2.753
   18CHL1   H1B 1304   4.089   2.610   2.750
   18CHL1    C2 1305   4.173   2.669   2.560
   18CHL1   H2A 1306   4.183   2.562   2.530
   18CHL1   H2B 1307   4.261   2.723   2.520
   18CHL1   C20 1308   4.247   3.020   3.434
   18CHL1   H20 1309   4.278   3.117   3.388
   18CHL1   C21 1310   4.373   2.934   3.449
   18CHL1  H21A 1311   4.351   2.835   3.494
   18CHL1  H21B 1312   4.441   2.991   3.514
   18CHL1  H21C 1313   4.426   2.919   3.352
   18CHL1   C22 1314   4.192   3.058   3.574
   18CHL1  H22A 1315   4.277   3.101   3.633
   18CHL1  H22B 1316   4.117   3.139   3.566
   18CHL1   C23 1317   4.132   2.942   3.653
   18CHL1  H23A 1318   4.029   2.923   3.615
   18CHL1  H23B 1319   4.191   2.850   3.636
   18CHL1   C24 1320   4.129   2.965   3.805
   18CHL1  H24A 1321   4.233   2.986   3.840
   18CHL1  H24B 1322   4.066   3.053   3.829
   18CHL1   C25 1323   4.077   2.841   3.881
   18CHL1   H25 1324   4.135   2.752   3.847
   18CHL1   C26 1325   4.097   2.854   4.033
   18CHL1  H26A 1326   4.205   2.855   4.058
   18CHL1  H26B 1327   4.052   2.947   4.071
   18CHL1  H26C 1328   4.050   2.768   4.085
   18CHL1   C27 1329   3.929   2.817   3.848
   18CHL1  H27A 1330   3.887   2.736   3.912
   18CHL1  H27B 1331   3.871   2.910   3.865
   18CHL1  H27C 1332   3.917   2.787   3.742
   19CHL1    C3 1333   4.372   5.633   2.530
   19CHL1    H3 1334   4.398   5.526   2.548
   19CHL1    O3 1335   4.341   5.649   2.394
   19CHL1   H3' 1336   4.269   5.588   2.377
   19CHL1    C4 1337   4.246   5.671   2.608
   19CHL1   H4A 1338   4.216   5.775   2.584
   19CHL1   H4B 1339   4.165   5.603   2.572
   19CHL1    C5 1340   4.272   5.656   2.755
   19CHL1    C6 1341   4.195   5.575   2.826
   19CHL1    H6 1342   4.110   5.524   2.779
   19CHL1    C7 1343   4.215   5.553   2.972
   19CHL1   H7A 1344   4.117   5.549   3.021
   19CHL1   H7B 1345   4.265   5.455   2.990
   19CHL1    C8 1346   4.304   5.662   3.037
   19CHL1    H8 1347   4.245   5.756   3.045
   19CHL1   C14 1348   4.343   5.614   3.174
   19CHL1   H14 1349   4.404   5.521   3.158
   19CHL1   C15 1350   4.226   5.571   3.263
   19CHL1  H15A 1351   4.146   5.647   3.252
   19CHL1  H15B 1352   4.187   5.471   3.238
   19CHL1   C16 1353   4.284   5.579   3.402
   19CHL1  H16A 1354   4.223   5.653   3.458
   19CHL1  H16B 1355   4.283   5.483   3.455
   19CHL1   C17 1356   4.430   5.630   3.388
   19CHL1   H17 1357   4.494   5.540   3.369
   19CHL1   C13 1358   4.429   5.709   3.255
   19CHL1   C18 1359   4.358   5.845   3.280
   19CHL1  H18A 1360   4.261   5.832   3.332
   19CHL1  H18B 1361   4.422   5.910   3.342
   19CHL1  H18C 1362   4.337   5.898   3.185
   19CHL1   C12 1363   4.561   5.728   3.177
   19CHL1  H12A 1364   4.626   5.802   3.228
   19CHL1  H12B 1365   4.615   5.631   3.174
   19CHL1   C11 1366   4.533   5.775   3.032
   19CHL1  H11A 1367   4.496   5.879   3.039
   19CHL1  H11B 1368   4.629   5.778   2.976
   19CHL1    C9 1369   4.429   5.686   2.956
   19CHL1    H9 1370   4.478   5.586   2.947
   19CHL1   C10 1371   4.395   5.730   2.811
   19CHL1   C19 1372   4.349   5.878   2.812
   19CHL1  H19A 1373   4.428   5.940   2.856
   19CHL1  H19B 1374   4.332   5.916   2.709
   19CHL1  H19C 1375   4.256   5.892   2.871
   19CHL1    C1 1376   4.519   5.708   2.720
   19CHL1   H1A 1377   4.600   5.778   2.749
   19CHL1   H1B 1378   4.557   5.604   2.737
   19CHL1    C2 1379   4.490   5.722   2.570
   19CHL1   H2A 1380   4.580   5.694   2.511
   19CHL1   H2B 1381   4.466   5.827   2.546
   19CHL1   C20 1382   4.477   5.693   3.518
   19CHL1   H20 1383   4.423   5.788   3.538
   19CHL1   C21 1384   4.627   5.723   3.509
   19CHL1  H21A 1385   4.684   5.634   3.477
   19CHL1  H21B 1386   4.665   5.756   3.608
   19CHL1  H21C 1387   4.644   5.806   3.437
   19CHL1   C22 1388   4.454   5.598   3.639
   19CHL1  H22A 1389   4.469   5.492   3.609
   19CHL1  H22B 1390   4.534   5.621   3.712
   19CHL1   C23 1391   4.318   5.614   3.711
   19CHL1  H23A 1392   4.300   5.721   3.736
   19CHL1  H23B 1393   4.234   5.580   3.647
   19CHL1   C24 1394   4.310   5.528   3.836
   19CHL1  H24A 1395   4.205   5.519   3.871
   19CHL1  H24B 1396   4.345   5.425   3.810
   19CHL1   C25 1397   4.397   5.584   3.950
   19CHL1   H25 1398   4.484   5.638   3.906
   19CHL1   C26 1399   4.320   5.683   4.035
   19CHL1  H26A 1400   4.387   5.722   4.114
   19CHL1  H26B 1401   4.284   5.767   3.971
   19CHL1  H26C 1402   4.232   5.635   4.083
   19CHL1   C27 1403   4.453   5.472   4.035
   19CHL1  H27A 1404   4.510   5.510   4.122
   19CHL1  H27B 1405   4.369   5.409   4.072
   19CHL1  H27C 1406   4.521   5.409   3.973
   20CHL1    C3 1407   1.602   4.397   2.520
   20CHL1    H3 1408   1.714   4.388   2.523
   20CHL1    O3 1409   1.561   4.392   2.384
   20CHL1   H3' 1410   1.573   4.300   2.361
   20CHL1    C4 1411   1.539   4.278   2.594
   20CHL1   H4A 1412   1.428   4.288   2.588
   20CHL1   H4B 1413   1.565   4.184   2.541
   20CHL1    C5 1414   1.581   4.275   2.740
   20CHL1    C6 1415   1.644   4.167   2.788
   20CHL1    H6 1416   1.660   4.079   2.724
   20CHL1    C7 1417   1.693   4.152   2.928
   20CHL1   H7A 1418   1.671   4.050   2.966
   20CHL1   H7B 1419   1.803   4.168   2.933
   20CHL1    C8 1420   1.626   4.256   3.019
   20CHL1    H8 1421   1.520   4.225   3.030
   20CHL1   C14 1422   1.691   4.251   3.155
   20CHL1   H14 1423   1.797   4.286   3.141
   20CHL1   C15 1424   1.702   4.113   3.223
   20CHL1  H15A 1425   1.606   4.059   3.213
   20CHL1  H15B 1426   1.783   4.051   3.181
   20CHL1   C16 1427   1.726   4.149   3.369
   20CHL1  H16A 1428   1.653   4.095   3.433
   20CHL1  H16B 1429   1.828   4.126   3.404
   20CHL1   C17 1430   1.708   4.303   3.380
   20CHL1   H17 1431   1.809   4.349   3.365
   20CHL1   C13 1432   1.628   4.345   3.257
   20CHL1   C18 1433   1.478   4.309   3.279
   20CHL1  H18A 1434   1.466   4.204   3.311
   20CHL1  H18B 1435   1.432   4.374   3.356
   20CHL1  H18C 1436   1.420   4.323   3.186
   20CHL1   C12 1437   1.651   4.488   3.203
   20CHL1  H12A 1438   1.611   4.564   3.273
   20CHL1  H12B 1439   1.761   4.504   3.193
   20CHL1   C11 1440   1.589   4.508   3.063
   20CHL1  H11A 1441   1.479   4.509   3.078
   20CHL1  H11B 1442   1.618   4.607   3.023
   20CHL1    C9 1443   1.631   4.398   2.959
   20CHL1    H9 1444   1.740   4.416   2.940
   20CHL1   C10 1445   1.560   4.406   2.820
   20CHL1   C19 1446   1.411   4.437   2.845
   20CHL1  H19A 1447   1.377   4.388   2.937
   20CHL1  H19B 1448   1.397   4.546   2.861
   20CHL1  H19C 1449   1.347   4.406   2.760
   20CHL1    C1 1450   1.615   4.523   2.735
   20CHL1   H1A 1451   1.592   4.619   2.785
   20CHL1   H1B 1452   1.725   4.513   2.731
   20CHL1    C2 1453   1.562   4.527   2.590
   20CHL1   H2A 1454   1.604   4.614   2.537
   20CHL1   H2B 1455   1.451   4.536   2.589
   20CHL1   C20 1456   1.666   4.338   3.522
   20CHL1   H20 1457   1.577   4.278   3.549
   20CHL1   C21 1458   1.626   4.487   3.534
   20CHL1  H21A 1459   1.608   4.515   3.639
   20CHL1  H21B 1460   1.532   4.507   3.479
   20CHL1  H21C 1461   1.705   4.552   3.491
   20CHL1   C22 1462   1.783   4.298   3.616
   20CHL1  H22A 1463   1.796   4.187   3.614
   20CHL1  H22B 1464   1.878   4.340   3.579
   20CHL1   C23 1465   1.764   4.334   3.763
   20CHL1  H23A 1466   1.846   4.288   3.822
   20CHL1  H23B 1467   1.771   4.444   3.778
   20CHL1   C24 1468   1.629   4.279   3.809
   20CHL1  H24A 1469   1.546   4.342   3.769
   20CHL1  H24B 1470   1.617   4.177   3.766
   20CHL1   C25 1471   1.612   4.269   3.960
   20CHL1   H25 1472   1.705   4.224   4.002
   20CHL1   C26 1473   1.593   4.409   4.020
   20CHL1  H26A 1474   1.580   4.402   4.130
   20CHL1  H26B 1475   1.683   4.471   4.000
   20CHL1  H26C 1476   1.505   4.461   3.976
   20CHL1   C27 1477   1.499   4.170   3.991
   20CHL1  H27A 1478   1.462   4.185   4.095
   20CHL1  H27B 1479   1.415   4.182   3.920
   20CHL1  H27C 1480   1.536   4.066   3.982
   21CHL1    C3 1481   1.289   3.557   2.493
   21CHL1    H3 1482   1.360   3.473   2.476
   21CHL1    O3 1483   1.275   3.632   2.374
   21CHL1   H3' 1484   1.254   3.565   2.306
   21CHL1    C4 1485   1.153   3.502   2.539
   21CHL1   H4A 1486   1.081   3.586   2.539
   21CHL1   H4B 1487   1.117   3.430   2.462
   21CHL1    C5 1488   1.160   3.439   2.678
   21CHL1    C6 1489   1.118   3.315   2.705
   21CHL1    H6 1490   1.072   3.255   2.625
   21CHL1    C7 1491   1.124   3.254   2.843
   21CHL1   H7A 1492   1.029   3.202   2.865
   21CHL1   H7B 1493   1.205   3.178   2.844
   21CHL1    C8 1494   1.152   3.356   2.957
   21CHL1    H8 1495   1.058   3.409   2.980
   21CHL1   C14 1496   1.203   3.287   3.082
   21CHL1   H14 1497   1.306   3.253   3.054
   21CHL1   C15 1498   1.136   3.157   3.121
   21CHL1  H15A 1499   1.028   3.163   3.103
   21CHL1  H15B 1500   1.175   3.072   3.060
   21CHL1   C16 1501   1.169   3.141   3.268
   21CHL1  H16A 1502   1.076   3.143   3.326
   21CHL1  H16B 1503   1.218   3.044   3.282
   21CHL1   C17 1504   1.263   3.259   3.307
   21CHL1   H17 1505   1.362   3.225   3.274
   21CHL1   C13 1506   1.227   3.373   3.207
   21CHL1   C18 1507   1.102   3.447   3.258
   21CHL1  H18A 1508   1.133   3.531   3.324
   21CHL1  H18B 1509   1.043   3.491   3.175
   21CHL1  H18C 1510   1.038   3.382   3.320
   21CHL1   C12 1511   1.335   3.476   3.170
   21CHL1  H12A 1512   1.344   3.554   3.247
   21CHL1  H12B 1513   1.433   3.426   3.164
   21CHL1   C11 1514   1.303   3.547   3.036
   21CHL1  H11A 1515   1.221   3.618   3.059
   21CHL1  H11B 1516   1.393   3.605   3.007
   21CHL1    C9 1517   1.261   3.453   2.918
   21CHL1    H9 1518   1.351   3.391   2.894
   21CHL1   C10 1519   1.227   3.525   2.786
   21CHL1   C19 1520   1.126   3.635   2.822
   21CHL1  H19A 1521   1.175   3.713   2.882
   21CHL1  H19B 1522   1.089   3.683   2.730
   21CHL1  H19C 1523   1.038   3.596   2.877
   21CHL1    C1 1524   1.358   3.585   2.730
   21CHL1   H1A 1525   1.400   3.657   2.803
   21CHL1   H1B 1526   1.430   3.500   2.718
   21CHL1    C2 1527   1.345   3.653   2.595
   21CHL1   H2A 1528   1.442   3.690   2.559
   21CHL1   H2B 1529   1.276   3.740   2.603
   21CHL1   C20 1530   1.277   3.287   3.458
   21CHL1   H20 1531   1.175   3.313   3.497
   21CHL1   C21 1532   1.365   3.412   3.477
   21CHL1  H21A 1533   1.397   3.425   3.582
   21CHL1  H21B 1534   1.308   3.503   3.448
   21CHL1  H21C 1535   1.455   3.405   3.412
   21CHL1   C22 1536   1.329   3.171   3.551
   21CHL1  H22A 1537   1.395   3.218   3.628
   21CHL1  H22B 1538   1.240   3.136   3.607
   21CHL1   C23 1539   1.404   3.043   3.499
   21CHL1  H23A 1540   1.346   2.996   3.418
   21CHL1  H23B 1541   1.499   3.073   3.452
   21CHL1   C24 1542   1.427   2.938   3.614
   21CHL1  H24A 1543   1.445   2.994   3.707
   21CHL1  H24B 1544   1.332   2.886   3.630
   21CHL1   C25 1545   1.526   2.815   3.613
   21CHL1   H25 1546   1.630   2.851   3.600
   21CHL1   C26 1547   1.516   2.749   3.752
   21CHL1  H26A 1548   1.533   2.823   3.832
   21CHL1  H26B 1549   1.414   2.706   3.765
   21CHL1  H26C 1550   1.590   2.667   3.762
   21CHL1   C27 1551   1.508   2.701   3.512
   21CHL1  H27A 1552   1.417   2.642   3.535
   21CHL1  H27B 1553   1.501   2.740   3.408
   21CHL1  H27C 1554   1.595   2.632   3.516
   22CHL1    C3 1555   4.606   6.399   2.509
   22CHL1    H3 1556   4.678   6.485   2.513
   22CHL1    O3 1557   4.573   6.370   2.374
   22CHL1   H3' 1558   4.653   6.326   2.340
   22CHL1    C4 1559   4.672   6.275   2.571
   22CHL1   H4A 1560   4.610   6.187   2.544
   22CHL1   H4B 1561   4.770   6.260   2.520
   22CHL1    C5 1562   4.689   6.278   2.721
   22CHL1    C6 1563   4.804   6.244   2.782
   22CHL1    H6 1564   4.890   6.211   2.721
   22CHL1    C7 1565   4.819   6.234   2.932
   22CHL1   H7A 1566   4.857   6.133   2.959
   22CHL1   H7B 1567   4.892   6.309   2.968
   22CHL1    C8 1568   4.685   6.251   3.009
   22CHL1    H8 1569   4.632   6.153   3.005
   22CHL1   C14 1570   4.708   6.284   3.156
   22CHL1   H14 1571   4.764   6.381   3.158
   22CHL1   C15 1572   4.792   6.185   3.240
   22CHL1  H15A 1573   4.765   6.081   3.213
   22CHL1  H15B 1574   4.901   6.199   3.223
   22CHL1   C16 1575   4.748   6.215   3.384
   22CHL1  H16A 1576   4.710   6.122   3.430
   22CHL1  H16B 1577   4.829   6.253   3.447
   22CHL1   C17 1578   4.635   6.322   3.376
   22CHL1   H17 1579   4.684   6.422   3.378
   22CHL1   C13 1580   4.579   6.306   3.235
   22CHL1   C18 1581   4.492   6.178   3.231
   22CHL1  H18A 1582   4.461   6.152   3.128
   22CHL1  H18B 1583   4.545   6.091   3.273
   22CHL1  H18C 1584   4.400   6.192   3.290
   22CHL1   C12 1585   4.510   6.429   3.174
   22CHL1  H12A 1586   4.417   6.458   3.226
   22CHL1  H12B 1587   4.580   6.516   3.180
   22CHL1   C11 1588   4.476   6.404   3.027
   22CHL1  H11A 1589   4.396   6.327   3.024
   22CHL1  H11B 1590   4.434   6.498   2.987
   22CHL1    C9 1591   4.600   6.360   2.944
   22CHL1    H9 1592   4.665   6.450   2.941
   22CHL1   C10 1593   4.565   6.326   2.798
   22CHL1   C19 1594   4.468   6.205   2.794
   22CHL1  H19A 1595   4.372   6.227   2.845
   22CHL1  H19B 1596   4.443   6.177   2.690
   22CHL1  H19C 1597   4.515   6.118   2.842
   22CHL1    C1 1598   4.501   6.451   2.733
   22CHL1   H1A 1599   4.403   6.471   2.780
   22CHL1   H1B 1600   4.567   6.539   2.751
   22CHL1    C2 1601   4.478   6.438   2.582
   22CHL1   H2A 1602   4.440   6.535   2.543
   22CHL1   H2B 1603   4.401   6.360   2.563
   22CHL1   C20 1604   4.541   6.316   3.497
   22CHL1   H20 1605   4.502   6.212   3.509
   22CHL1   C21 1606   4.420   6.410   3.481
   22CHL1  H21A 1607   4.455   6.513   3.458
   22CHL1  H21B 1608   4.357   6.413   3.572
   22CHL1  H21C 1609   4.355   6.377   3.398
   22CHL1   C22 1610   4.620   6.353   3.623
   22CHL1  H22A 1611   4.708   6.285   3.634
   22CHL1  H22B 1612   4.660   6.456   3.612
   22CHL1   C23 1613   4.542   6.345   3.754
   22CHL1  H23A 1614   4.457   6.417   3.753
   22CHL1  H23B 1615   4.501   6.243   3.767
   22CHL1   C24 1616   4.637   6.383   3.868
   22CHL1  H24A 1617   4.730   6.322   3.858
   22CHL1  H24B 1618   4.665   6.490   3.856
   22CHL1   C25 1619   4.583   6.361   4.010
   22CHL1   H25 1620   4.573   6.251   4.026
   22CHL1   C26 1621   4.685   6.419   4.108
   22CHL1  H26A 1622   4.714   6.522   4.078
   22CHL1  H26B 1623   4.640   6.425   4.209
   22CHL1  H26C 1624   4.777   6.356   4.111
   22CHL1   C27 1625   4.447   6.427   4.035
   22CHL1  H27A 1626   4.461   6.536   4.047
   22CHL1  H27B 1627   4.376   6.409   3.952
   22CHL1  H27C 1628   4.401   6.388   4.129
   23CHL1    C3 1629   6.310   2.463   2.514
   23CHL1    H3 1630   6.409   2.514   2.514
   23CHL1    O3 1631   6.261   2.451   2.381
   23CHL1   H3' 1632   6.330   2.401   2.332
   23CHL1    C4 1633   6.322   2.323   2.575
   23CHL1   H4A 1634   6.225   2.276   2.554
   23CHL1   H4B 1635   6.399   2.265   2.521
   23CHL1    C5 1636   6.348   2.320   2.724
   23CHL1    C6 1637   6.455   2.260   2.777
   23CHL1    H6 1638   6.527   2.208   2.713
   23CHL1    C7 1639   6.479   2.254   2.925
   23CHL1   H7A 1640   6.511   2.152   2.953
   23CHL1   H7B 1641   6.561   2.324   2.953
   23CHL1    C8 1642   6.354   2.285   3.010
   23CHL1    H8 1643   6.286   2.197   3.002
   23CHL1   C14 1644   6.392   2.310   3.155
   23CHL1   H14 1645   6.448   2.408   3.156
   23CHL1   C15 1646   6.489   2.211   3.223
   23CHL1  H15A 1647   6.457   2.108   3.198
   23CHL1  H15B 1648   6.593   2.227   3.190
   23CHL1   C16 1649   6.469   2.238   3.373
   23CHL1  H16A 1650   6.444   2.143   3.424
   23CHL1  H16B 1651   6.561   2.280   3.419
   23CHL1   C17 1652   6.351   2.340   3.384
   23CHL1   H17 1653   6.397   2.441   3.383
   23CHL1   C13 1654   6.274   2.328   3.250
   23CHL1   C18 1655   6.187   2.200   3.253
   23CHL1  H18A 1656   6.139   2.183   3.154
   23CHL1  H18B 1657   6.246   2.110   3.278
   23CHL1  H18C 1658   6.105   2.210   3.326
   23CHL1   C12 1659   6.192   2.450   3.203
   23CHL1  H12A 1660   6.094   2.453   3.254
   23CHL1  H12B 1661   6.246   2.542   3.230
   23CHL1   C11 1662   6.161   2.446   3.052
   23CHL1  H11A 1663   6.080   2.370   3.042
   23CHL1  H11B 1664   6.119   2.544   3.021
   23CHL1    C9 1665   6.280   2.408   2.958
   23CHL1    H9 1666   6.353   2.491   2.965
   23CHL1   C10 1667   6.244   2.397   2.808
   23CHL1   C19 1668   6.105   2.330   2.797
   23CHL1  H19A 1669   6.026   2.399   2.832
   23CHL1  H19B 1670   6.078   2.301   2.694
   23CHL1  H19C 1671   6.103   2.239   2.861
   23CHL1    C1 1672   6.239   2.539   2.747
   23CHL1   H1A 1673   6.161   2.592   2.806
   23CHL1   H1B 1674   6.335   2.592   2.765
   23CHL1    C2 1675   6.209   2.544   2.596
   23CHL1   H2A 1676   6.213   2.649   2.559
   23CHL1   H2B 1677   6.106   2.505   2.577
   23CHL1   C20 1678   6.274   2.328   3.516
   23CHL1   H20 1679   6.232   2.225   3.524
   23CHL1   C21 1680   6.157   2.428   3.519
   23CHL1  H21A 1681   6.080   2.400   3.445
   23CHL1  H21B 1682   6.193   2.531   3.499
   23CHL1  H21C 1683   6.104   2.427   3.616
   23CHL1   C22 1684   6.367   2.349   3.638
   23CHL1  H22A 1685   6.450   2.275   3.636
   23CHL1  H22B 1686   6.412   2.451   3.632
   23CHL1   C23 1687   6.295   2.334   3.773
   23CHL1  H23A 1688   6.213   2.408   3.783
   23CHL1  H23B 1689   6.249   2.232   3.777
   23CHL1   C24 1690   6.387   2.356   3.894
   23CHL1  H24A 1691   6.475   2.289   3.885
   23CHL1  H24B 1692   6.423   2.461   3.894
   23CHL1   C25 1693   6.316   2.326   4.027
   23CHL1   H25 1694   6.212   2.365   4.023
   23CHL1   C26 1695   6.310   2.175   4.050
   23CHL1  H26A 1696   6.254   2.127   3.967
   23CHL1  H26B 1697   6.412   2.131   4.053
   23CHL1  H26C 1698   6.260   2.153   4.146
   23CHL1   C27 1699   6.386   2.393   4.145
   23CHL1  H27A 1700   6.496   2.380   4.137
   23CHL1  H27B 1701   6.364   2.502   4.147
   23CHL1  H27C 1702   6.352   2.349   4.241
   24CHL1    C3 1703   1.073   4.961   2.515
   24CHL1    H3 1704   1.079   4.850   2.518
   24CHL1    O3 1705   1.043   5.003   2.383
   24CHL1   H3' 1706   0.968   5.066   2.390
   24CHL1    C4 1707   0.963   5.010   2.611
   24CHL1   H4A 1708   0.949   5.120   2.596
   24CHL1   H4B 1709   0.867   4.962   2.579
   24CHL1    C5 1710   0.995   4.980   2.756
   24CHL1    C6 1711   0.910   4.913   2.836
   24CHL1    H6 1712   0.812   4.884   2.795
   24CHL1    C7 1713   0.936   4.885   2.981
   24CHL1   H7A 1714   0.846   4.910   3.043
   24CHL1   H7B 1715   0.954   4.776   2.994
   24CHL1    C8 1716   1.057   4.962   3.040
   24CHL1    H8 1717   1.023   5.067   3.059
   24CHL1   C14 1718   1.104   4.899   3.170
   24CHL1   H14 1719   1.141   4.797   3.143
   24CHL1   C15 1720   1.000   4.876   3.281
   24CHL1  H15A 1721   0.938   4.967   3.295
   24CHL1  H15B 1722   0.934   4.790   3.256
   24CHL1   C16 1723   1.086   4.850   3.406
   24CHL1  H16A 1724   1.051   4.916   3.489
   24CHL1  H16B 1725   1.080   4.745   3.439
   24CHL1   C17 1726   1.234   4.886   3.368
   24CHL1   H17 1727   1.284   4.791   3.340
   24CHL1   C13 1728   1.221   4.969   3.239
   24CHL1   C18 1729   1.179   5.112   3.279
   24CHL1  H18A 1730   1.265   5.165   3.325
   24CHL1  H18B 1731   1.147   5.170   3.191
   24CHL1  H18C 1732   1.097   5.113   3.353
   24CHL1   C12 1733   1.340   4.966   3.140
   24CHL1  H12A 1734   1.427   5.022   3.181
   24CHL1  H12B 1735   1.370   4.861   3.125
   24CHL1   C11 1736   1.302   5.028   3.004
   24CHL1  H11A 1737   1.286   5.137   3.021
   24CHL1  H11B 1738   1.389   5.017   2.936
   24CHL1    C9 1739   1.174   4.966   2.941
   24CHL1    H9 1740   1.200   4.858   2.922
   24CHL1   C10 1741   1.135   5.024   2.802
   24CHL1   C19 1742   1.130   5.178   2.814
   24CHL1  H19A 1743   1.234   5.213   2.826
   24CHL1  H19B 1744   1.090   5.227   2.723
   24CHL1  H19C 1745   1.069   5.211   2.900
   24CHL1    C1 1746   1.245   4.984   2.699
   24CHL1   H1A 1747   1.341   5.034   2.724
   24CHL1   H1B 1748   1.262   4.874   2.705
   24CHL1    C2 1749   1.210   5.019   2.554
   24CHL1   H2A 1750   1.288   4.980   2.486
   24CHL1   H2B 1751   1.207   5.130   2.541
   24CHL1   C20 1752   1.312   4.946   3.487
   24CHL1   H20 1753   1.258   5.037   3.522
   24CHL1   C21 1754   1.455   4.986   3.448
   24CHL1  H21A 1755   1.454   5.072   3.378
   24CHL1  H21B 1756   1.508   4.901   3.400
   24CHL1  H21C 1757   1.513   5.018   3.537
   24CHL1   C22 1758   1.319   4.849   3.608
   24CHL1  H22A 1759   1.226   4.789   3.616
   24CHL1  H22B 1760   1.403   4.779   3.593
   24CHL1   C23 1761   1.334   4.924   3.741
   24CHL1  H23A 1762   1.423   4.990   3.737
   24CHL1  H23B 1763   1.244   4.988   3.757
   24CHL1   C24 1764   1.350   4.827   3.860
   24CHL1  H24A 1765   1.273   4.747   3.853
   24CHL1  H24B 1766   1.449   4.778   3.852
   24CHL1   C25 1767   1.337   4.894   3.999
   24CHL1   H25 1768   1.229   4.912   4.019
   24CHL1   C26 1769   1.390   4.799   4.108
   24CHL1  H26A 1770   1.384   4.848   4.207
   24CHL1  H26B 1771   1.331   4.706   4.110
   24CHL1  H26C 1772   1.496   4.773   4.087
   24CHL1   C27 1773   1.408   5.030   4.006
   24CHL1  H27A 1774   1.354   5.106   3.947
   24CHL1  H27B 1775   1.414   5.065   4.111
   24CHL1  H27C 1776   1.511   5.021   3.966
   25CHL1    C3 1777   6.503   5.362   2.511
   25CHL1    H3 1778   6.547   5.465   2.507
   25CHL1    O3 1779   6.531   5.293   2.390
   25CHL1   H3' 1780   6.613   5.334   2.357
   25CHL1    C4 1781   6.567   5.283   2.627
   25CHL1   H4A 1782   6.534   5.177   2.619
   25CHL1   H4B 1783   6.677   5.284   2.610
   25CHL1    C5 1784   6.531   5.336   2.764
   25CHL1    C6 1785   6.627   5.361   2.855
   25CHL1    H6 1786   6.732   5.342   2.829
   25CHL1    C7 1787   6.604   5.412   2.993
   25CHL1   H7A 1788   6.657   5.348   3.068
   25CHL1   H7B 1789   6.644   5.514   3.006
   25CHL1    C8 1790   6.454   5.411   3.029
   25CHL1    H8 1791   6.436   5.307   3.059
   25CHL1   C14 1792   6.425   5.508   3.142
   25CHL1   H14 1793   6.428   5.610   3.098
   25CHL1   C15 1794   6.521   5.517   3.261
   25CHL1  H15A 1795   6.541   5.416   3.302
   25CHL1  H15B 1796   6.617   5.566   3.236
   25CHL1   C16 1797   6.441   5.599   3.361
   25CHL1  H16A 1798   6.464   5.567   3.465
   25CHL1  H16B 1799   6.466   5.707   3.352
   25CHL1   C17 1800   6.291   5.582   3.321
   25CHL1   H17 1801   6.255   5.683   3.289
   25CHL1   C13 1802   6.285   5.491   3.199
   25CHL1   C18 1803   6.267   5.344   3.247
   25CHL1  H18A 1804   6.341   5.318   3.326
   25CHL1  H18B 1805   6.166   5.323   3.287
   25CHL1  H18C 1806   6.278   5.273   3.165
   25CHL1   C12 1807   6.186   5.531   3.087
   25CHL1  H12A 1808   6.080   5.522   3.116
   25CHL1  H12B 1809   6.204   5.638   3.061
   25CHL1   C11 1810   6.210   5.445   2.963
   25CHL1  H11A 1811   6.178   5.342   2.989
   25CHL1  H11B 1812   6.144   5.482   2.882
   25CHL1    C9 1813   6.358   5.446   2.915
   25CHL1    H9 1814   6.380   5.553   2.888
   25CHL1   C10 1815   6.381   5.365   2.786
   25CHL1   C19 1816   6.308   5.231   2.800
   25CHL1  H19A 1817   6.198   5.244   2.794
   25CHL1  H19B 1818   6.336   5.157   2.722
   25CHL1  H19C 1819   6.330   5.188   2.900
   25CHL1    C1 1820   6.320   5.441   2.665
   25CHL1   H1A 1821   6.210   5.446   2.677
   25CHL1   H1B 1822   6.358   5.546   2.663
   25CHL1    C2 1823   6.351   5.377   2.529
   25CHL1   H2A 1824   6.310   5.442   2.448
   25CHL1   H2B 1825   6.303   5.277   2.521
   25CHL1   C20 1826   6.204   5.537   3.436
   25CHL1   H20 1827   6.227   5.433   3.467
   25CHL1   C21 1828   6.058   5.538   3.388
   25CHL1  H21A 1829   6.032   5.638   3.351
   25CHL1  H21B 1830   5.992   5.504   3.468
   25CHL1  H21C 1831   6.037   5.471   3.303
   25CHL1   C22 1832   6.227   5.621   3.563
   25CHL1  H22A 1833   6.310   5.694   3.554
   25CHL1  H22B 1834   6.137   5.682   3.574
   25CHL1   C23 1835   6.261   5.526   3.680
   25CHL1  H23A 1836   6.172   5.462   3.700
   25CHL1  H23B 1837   6.343   5.459   3.646
   25CHL1   C24 1838   6.310   5.592   3.810
   25CHL1  H24A 1839   6.421   5.595   3.811
   25CHL1  H24B 1840   6.275   5.696   3.811
   25CHL1   C25 1841   6.262   5.519   3.937
   25CHL1   H25 1842   6.151   5.507   3.929
   25CHL1   C26 1843   6.325   5.380   3.950
   25CHL1  H26A 1844   6.276   5.322   4.031
   25CHL1  H26B 1845   6.314   5.323   3.855
   25CHL1  H26C 1846   6.433   5.388   3.974
   25CHL1   C27 1847   6.290   5.604   4.063
   25CHL1  H27A 1848   6.397   5.632   4.068
   25CHL1  H27B 1849   6.230   5.697   4.061
   25CHL1  H27C 1850   6.263   5.548   4.155
   26CHL1    C3 1851   1.398   5.691   2.505
   26CHL1    H3 1852   1.496   5.637   2.508
   26CHL1    O3 1853   1.366   5.718   2.369
   26CHL1   H3' 1854   1.325   5.806   2.371
   26CHL1    C4 1855   1.291   5.600   2.568
   26CHL1   H4A 1856   1.190   5.642   2.545
   26CHL1   H4B 1857   1.295   5.502   2.515
   26CHL1    C5 1858   1.310   5.583   2.717
   26CHL1    C6 1859   1.328   5.463   2.774
   26CHL1    H6 1860   1.327   5.373   2.711
   26CHL1    C7 1861   1.340   5.443   2.923
   26CHL1   H7A 1862   1.283   5.355   2.957
   26CHL1   H7B 1863   1.446   5.428   2.952
   26CHL1    C8 1864   1.283   5.565   3.000
   26CHL1    H8 1865   1.173   5.567   2.980
   26CHL1   C14 1866   1.305   5.548   3.149
   26CHL1   H14 1867   1.416   5.547   3.164
   26CHL1   C15 1868   1.254   5.418   3.211
   26CHL1  H15A 1869   1.151   5.397   3.173
   26CHL1  H15B 1870   1.320   5.333   3.187
   26CHL1   C16 1871   1.249   5.447   3.361
   26CHL1  H16A 1872   1.152   5.413   3.401
   26CHL1  H16B 1873   1.330   5.394   3.415
   26CHL1   C17 1874   1.267   5.602   3.377
   26CHL1   H17 1875   1.374   5.619   3.403
   26CHL1   C13 1876   1.250   5.661   3.234
   26CHL1   C18 1877   1.098   5.682   3.208
   26CHL1  H18A 1878   1.040   5.591   3.233
   26CHL1  H18B 1879   1.058   5.766   3.268
   26CHL1  H18C 1880   1.079   5.708   3.102
   26CHL1   C12 1881   1.334   5.785   3.196
   26CHL1  H12A 1882   1.304   5.874   3.254
   26CHL1  H12B 1883   1.441   5.763   3.221
   26CHL1   C11 1884   1.324   5.815   3.045
   26CHL1  H11A 1885   1.224   5.859   3.030
   26CHL1  H11B 1886   1.400   5.892   3.021
   26CHL1    C9 1887   1.347   5.693   2.949
   26CHL1    H9 1888   1.457   5.674   2.954
   26CHL1   C10 1889   1.314   5.715   2.798
   26CHL1   C19 1890   1.175   5.784   2.787
   26CHL1  H19A 1891   1.098   5.725   2.842
   26CHL1  H19B 1892   1.179   5.887   2.829
   26CHL1  H19C 1893   1.141   5.794   2.682
   26CHL1    C1 1894   1.427   5.799   2.732
   26CHL1   H1A 1895   1.437   5.895   2.785
   26CHL1   H1B 1896   1.524   5.746   2.747
   26CHL1    C2 1897   1.410   5.823   2.581
   26CHL1   H2A 1898   1.497   5.880   2.541
   26CHL1   H2B 1899   1.319   5.885   2.565
   26CHL1   C20 1900   1.182   5.656   3.493
   26CHL1   H20 1901   1.075   5.635   3.472
   26CHL1   C21 1902   1.201   5.808   3.505
   26CHL1  H21A 1903   1.143   5.848   3.590
   26CHL1  H21B 1904   1.166   5.862   3.415
   26CHL1  H21C 1905   1.309   5.831   3.520
   26CHL1   C22 1906   1.218   5.585   3.627
   26CHL1  H22A 1907   1.196   5.476   3.618
   26CHL1  H22B 1908   1.327   5.596   3.645
   26CHL1   C23 1909   1.143   5.638   3.750
   26CHL1  H23A 1910   1.175   5.743   3.770
   26CHL1  H23B 1911   1.033   5.640   3.730
   26CHL1   C24 1912   1.172   5.559   3.879
   26CHL1  H24A 1913   1.282   5.546   3.889
   26CHL1  H24B 1914   1.137   5.619   3.966
   26CHL1   C25 1915   1.104   5.421   3.889
   26CHL1   H25 1916   1.127   5.362   3.797
   26CHL1   C26 1917   1.158   5.343   4.010
   26CHL1  H26A 1918   1.109   5.243   4.017
   26CHL1  H26B 1919   1.268   5.327   4.001
   26CHL1  H26C 1920   1.138   5.399   4.103
   26CHL1   C27 1921   0.952   5.436   3.901
   26CHL1  H27A 1922   0.903   5.341   3.931
   26CHL1  H27B 1923   0.929   5.514   3.977
   26CHL1  H27C 1924   0.908   5.469   3.804
   27CHL1    C3 1925   7.089   4.693   2.527
   27CHL1    H3 1926   6.982   4.662   2.527
   27CHL1    O3 1927   7.147   4.661   2.401
   27CHL1   H3' 1928   7.074   4.659   2.337
   27CHL1    C4 1929   7.099   4.844   2.554
   27CHL1   H4A 1930   7.206   4.874   2.546
   27CHL1   H4B 1931   7.045   4.896   2.472
   27CHL1    C5 1932   7.045   4.882   2.691
   27CHL1    C6 1933   6.952   4.978   2.704
   27CHL1    H6 1934   6.921   5.035   2.615
   27CHL1    C7 1935   6.891   5.019   2.835
   27CHL1   H7A 1936   6.897   5.129   2.849
   27CHL1   H7B 1937   6.784   4.992   2.832
   27CHL1    C8 1938   6.956   4.952   2.959
   27CHL1    H8 1939   7.046   5.012   2.984
   27CHL1   C14 1940   6.859   4.952   3.076
   27CHL1   H14 1941   6.776   4.885   3.044
   27CHL1   C15 1942   6.793   5.086   3.115
   27CHL1  H15A 1943   6.871   5.164   3.123
   27CHL1  H15B 1944   6.717   5.119   3.042
   27CHL1   C16 1945   6.732   5.057   3.253
   27CHL1  H16A 1946   6.754   5.143   3.320
   27CHL1  H16B 1947   6.622   5.044   3.247
   27CHL1   C17 1948   6.797   4.925   3.306
   27CHL1   H17 1949   6.721   4.846   3.290
   27CHL1   C13 1950   6.910   4.890   3.206
   27CHL1   C18 1951   7.035   4.965   3.251
   27CHL1  H18A 1952   7.082   4.918   3.339
   27CHL1  H18B 1953   7.112   4.972   3.172
   27CHL1  H18C 1954   7.002   5.067   3.278
   27CHL1   C12 1955   6.942   4.743   3.177
   27CHL1  H12A 1956   6.984   4.693   3.267
   27CHL1  H12B 1957   6.849   4.690   3.148
   27CHL1   C11 1958   7.043   4.732   3.061
   27CHL1  H11A 1959   7.141   4.773   3.094
   27CHL1  H11B 1960   7.059   4.624   3.039
   27CHL1    C9 1961   6.997   4.807   2.932
   27CHL1    H9 1962   6.903   4.756   2.902
   27CHL1   C10 1963   7.092   4.794   2.809
   27CHL1   C19 1964   7.235   4.842   2.846
   27CHL1  H19A 1965   7.302   4.840   2.759
   27CHL1  H19B 1966   7.233   4.946   2.884
   27CHL1  H19C 1967   7.279   4.776   2.924
   27CHL1    C1 1968   7.095   4.643   2.769
   27CHL1   H1A 1969   7.145   4.584   2.849
   27CHL1   H1B 1970   6.990   4.607   2.761
   27CHL1    C2 1971   7.165   4.618   2.636
   27CHL1   H2A 1972   7.168   4.509   2.614
   27CHL1   H2B 1973   7.271   4.652   2.639
   27CHL1   C20 1974   6.830   4.934   3.457
   27CHL1   H20 1975   6.907   5.013   3.473
   27CHL1   C21 1976   6.892   4.802   3.508
   27CHL1  H21A 1977   6.989   4.781   3.460
   27CHL1  H21B 1978   6.825   4.715   3.489
   27CHL1  H21C 1979   6.913   4.807   3.617
   27CHL1   C22 1980   6.706   4.981   3.540
   27CHL1  H22A 1981   6.694   5.090   3.528
   27CHL1  H22B 1982   6.615   4.935   3.497
   27CHL1   C23 1983   6.710   4.950   3.691
   27CHL1  H23A 1984   6.722   4.840   3.706
   27CHL1  H23B 1985   6.797   5.001   3.736
   27CHL1   C24 1986   6.581   4.990   3.764
   27CHL1  H24A 1987   6.566   5.100   3.759
   27CHL1  H24B 1988   6.495   4.943   3.712
   27CHL1   C25 1989   6.578   4.945   3.912
   27CHL1   H25 1990   6.607   4.837   3.915
   27CHL1   C26 1991   6.677   5.024   3.998
   27CHL1  H26A 1992   6.652   5.133   3.994
   27CHL1  H26B 1993   6.671   4.991   4.104
   27CHL1  H26C 1994   6.781   5.011   3.962
   27CHL1   C27 1995   6.437   4.956   3.969
   27CHL1  H27A 1996   6.436   4.936   4.078
   27CHL1  H27B 1997   6.396   5.058   3.951
   27CHL1  H27C 1998   6.370   4.882   3.920
   28CHL1    C3 1999   1.247   1.486   2.497
   28CHL1    H3 2000   1.182   1.577   2.492
   28CHL1    O3 2001   1.284   1.448   2.364
   28CHL1   H3' 2002   1.207   1.470   2.309
   28CHL1    C4 2003   1.373   1.523   2.577
   28CHL1   H4A 2004   1.450   1.444   2.563
   28CHL1   H4B 2005   1.417   1.615   2.532
   28CHL1    C5 2006   1.346   1.543   2.725
   28CHL1    C6 2007   1.378   1.657   2.790
   28CHL1    H6 2008   1.430   1.737   2.736
   28CHL1    C7 2009   1.356   1.678   2.937
   28CHL1   H7A 2010   1.443   1.731   2.982
   28CHL1   H7B 2011   1.266   1.742   2.953
   28CHL1    C8 2012   1.336   1.545   3.013
   28CHL1    H8 2013   1.437   1.497   3.017
   28CHL1   C14 2014   1.282   1.567   3.154
   28CHL1   H14 2015   1.173   1.592   3.142
   28CHL1   C15 2016   1.337   1.683   3.238
   28CHL1  H15A 2017   1.445   1.693   3.217
   28CHL1  H15B 2018   1.287   1.779   3.212
   28CHL1   C16 2019   1.310   1.641   3.384
   28CHL1  H16A 2020   1.407   1.633   3.438
   28CHL1  H16B 2021   1.247   1.713   3.438
   28CHL1   C17 2022   1.242   1.501   3.378
   28CHL1   H17 2023   1.132   1.520   3.369
   28CHL1   C13 2024   1.285   1.442   3.242
   28CHL1   C18 2025   1.431   1.389   3.255
   28CHL1  H18A 2026   1.500   1.470   3.287
   28CHL1  H18B 2027   1.439   1.309   3.331
   28CHL1  H18C 2028   1.468   1.347   3.160
   28CHL1   C12 2029   1.190   1.340   3.176
   28CHL1  H12A 2030   1.193   1.241   3.226
   28CHL1  H12B 2031   1.086   1.379   3.185
   28CHL1   C11 2032   1.224   1.318   3.027
   28CHL1  H11A 2033   1.319   1.261   3.028
   28CHL1  H11B 2034   1.146   1.253   2.981
   28CHL1    C9 2035   1.240   1.449   2.943
   28CHL1    H9 2036   1.141   1.500   2.944
   28CHL1   C10 2037   1.274   1.426   2.793
   28CHL1   C19 2038   1.366   1.302   2.784
   28CHL1  H19A 2039   1.402   1.282   2.682
   28CHL1  H19B 2040   1.454   1.315   2.851
   28CHL1  H19C 2041   1.309   1.212   2.814
   28CHL1    C1 2042   1.143   1.400   2.713
   28CHL1   H1A 2043   1.090   1.314   2.758
   28CHL1   H1B 2044   1.077   1.489   2.724
   28CHL1    C2 2045   1.167   1.372   2.563
   28CHL1   H2A 2046   1.069   1.359   2.511
   28CHL1   H2B 2047   1.222   1.277   2.552
   28CHL1   C20 2048   1.263   1.419   3.506
   28CHL1   H20 2049   1.373   1.411   3.526
   28CHL1   C21 2050   1.208   1.277   3.484
   28CHL1  H21A 2051   1.106   1.283   3.441
   28CHL1  H21B 2052   1.202   1.219   3.577
   28CHL1  H21C 2053   1.272   1.218   3.416
   28CHL1   C22 2054   1.198   1.482   3.632
   28CHL1  H22A 2055   1.224   1.590   3.638
   28CHL1  H22B 2056   1.088   1.475   3.621
   28CHL1   C23 2057   1.242   1.415   3.763
   28CHL1  H23A 2058   1.257   1.306   3.747
   28CHL1  H23B 2059   1.341   1.456   3.794
   28CHL1   C24 2060   1.142   1.426   3.879
   28CHL1  H24A 2061   1.141   1.530   3.917
   28CHL1  H24B 2062   1.040   1.403   3.841
   28CHL1   C25 2063   1.173   1.326   3.993
   28CHL1   H25 2064   1.170   1.224   3.949
   28CHL1   C26 2065   1.316   1.335   4.045
   28CHL1  H26A 2066   1.383   1.278   3.977
   28CHL1  H26B 2067   1.352   1.439   4.051
   28CHL1  H26C 2068   1.323   1.288   4.146
   28CHL1   C27 2069   1.067   1.331   4.105
   28CHL1  H27A 2070   0.977   1.269   4.091
   28CHL1  H27B 2071   1.111   1.299   4.202
   28CHL1  H27C 2072   1.029   1.434   4.115
   29CHL1    C3 2073   7.177   6.775   2.509
   29CHL1    H3 2074   7.240   6.685   2.530
   29CHL1    O3 2075   7.177   6.799   2.369
   29CHL1   H3' 2076   7.191   6.711   2.331
   29CHL1    C4 2077   7.032   6.746   2.554
   29CHL1   H4A 2078   6.967   6.824   2.508
   29CHL1   H4B 2079   7.001   6.651   2.506
   29CHL1    C5 2080   7.013   6.744   2.704
   29CHL1    C6 2081   6.949   6.646   2.770
   29CHL1    H6 2082   6.907   6.562   2.712
   29CHL1    C7 2083   6.918   6.650   2.917
   29CHL1   H7A 2084   6.814   6.617   2.936
   29CHL1   H7B 2085   6.986   6.579   2.970
   29CHL1    C8 2086   6.936   6.790   2.982
   29CHL1    H8 2087   6.849   6.853   2.954
   29CHL1   C14 2088   6.945   6.777   3.134
   29CHL1   H14 2089   7.037   6.715   3.152
   29CHL1   C15 2090   6.833   6.705   3.213
   29CHL1  H15A 2091   6.735   6.743   3.181
   29CHL1  H15B 2092   6.837   6.595   3.198
   29CHL1   C16 2093   6.860   6.745   3.361
   29CHL1  H16A 2094   6.768   6.787   3.406
   29CHL1  H16B 2095   6.894   6.658   3.421
   29CHL1   C17 2096   6.974   6.851   3.356
   29CHL1   H17 2097   7.069   6.793   3.365
   29CHL1   C13 2098   6.970   6.906   3.211
   29CHL1   C18 2099   6.849   7.001   3.202
   29CHL1  H18A 2100   6.765   6.965   3.263
   29CHL1  H18B 2101   6.875   7.103   3.237
   29CHL1  H18C 2102   6.814   7.008   3.098
   29CHL1   C12 2103   7.095   6.974   3.154
   29CHL1  H12A 2104   7.111   7.076   3.196
   29CHL1  H12B 2105   7.180   6.910   3.181
   29CHL1   C11 2106   7.096   6.990   3.002
   29CHL1  H11A 2107   7.024   7.069   2.977
   29CHL1  H11B 2108   7.196   7.028   2.971
   29CHL1    C9 2109   7.064   6.857   2.929
   29CHL1    H9 2110   7.147   6.787   2.959
   29CHL1   C10 2111   7.073   6.866   2.775
   29CHL1   C19 2112   6.986   6.981   2.724
   29CHL1  H19A 2113   6.997   7.000   2.616
   29CHL1  H19B 2114   6.878   6.961   2.742
   29CHL1  H19C 2115   7.015   7.076   2.773
   29CHL1    C1 2116   7.221   6.887   2.733
   29CHL1   H1A 2117   7.260   6.981   2.777
   29CHL1   H1B 2118   7.282   6.803   2.772
   29CHL1    C2 2119   7.240   6.895   2.581
   29CHL1   H2A 2120   7.348   6.898   2.557
   29CHL1   H2B 2121   7.197   6.990   2.542
   29CHL1   C20 2122   6.975   6.957   3.466
   29CHL1   H20 2123   6.890   7.027   3.451
   29CHL1   C21 2124   7.106   7.029   3.447
   29CHL1  H21A 2125   7.179   6.970   3.390
   29CHL1  H21B 2126   7.156   7.044   3.542
   29CHL1  H21C 2127   7.092   7.126   3.396
   29CHL1   C22 2128   6.962   6.913   3.615
   29CHL1  H22A 2129   6.946   7.006   3.674
   29CHL1  H22B 2130   6.869   6.855   3.623
   29CHL1   C23 2131   7.082   6.841   3.681
   29CHL1  H23A 2132   7.103   6.747   3.626
   29CHL1  H23B 2133   7.176   6.901   3.675
   29CHL1   C24 2134   7.060   6.811   3.830
   29CHL1  H24A 2135   7.145   6.750   3.868
   29CHL1  H24B 2136   7.059   6.905   3.889
   29CHL1   C25 2137   6.929   6.735   3.857
   29CHL1   H25 2138   6.844   6.806   3.844
   29CHL1   C26 2139   6.911   6.620   3.758
   29CHL1  H26A 2140   6.882   6.655   3.657
   29CHL1  H26B 2141   7.005   6.562   3.749
   29CHL1  H26C 2142   6.830   6.554   3.794
   29CHL1   C27 2143   6.922   6.680   3.999
   29CHL1  H27A 2144   6.840   6.606   4.004
   29CHL1  H27B 2145   7.016   6.629   4.029
   29CHL1  H27C 2146   6.899   6.761   4.071
   30CHL1    C3 2147   7.701   6.236   2.528
   30CHL1    H3 2148   7.768   6.305   2.586
   30CHL1    O3 2149   7.741   6.244   2.392
   30CHL1   H3' 2150   7.762   6.154   2.365
   30CHL1    C4 2151   7.716   6.092   2.576
   30CHL1   H4A 2152   7.638   6.029   2.529
   30CHL1   H4B 2153   7.814   6.051   2.546
   30CHL1    C5 2154   7.699   6.099   2.726
   30CHL1    C6 2155   7.802   6.076   2.807
   30CHL1    H6 2156   7.899   6.046   2.765
   30CHL1    C7 2157   7.790   6.086   2.956
   30CHL1   H7A 2158   7.854   6.014   3.008
   30CHL1   H7B 2159   7.825   6.186   2.988
   30CHL1    C8 2160   7.645   6.069   3.005
   30CHL1    H8 2161   7.608   5.966   2.983
   30CHL1   C14 2162   7.644   6.089   3.156
   30CHL1   H14 2163   7.706   6.182   3.169
   30CHL1   C15 2164   7.712   5.983   3.245
   30CHL1  H15A 2165   7.671   5.883   3.220
   30CHL1  H15B 2166   7.821   5.976   3.229
   30CHL1   C16 2167   7.670   6.029   3.387
   30CHL1  H16A 2168   7.626   5.943   3.438
   30CHL1  H16B 2169   7.758   6.060   3.447
   30CHL1   C17 2170   7.569   6.149   3.366
   30CHL1   H17 2171   7.635   6.238   3.352
   30CHL1   C13 2172   7.511   6.117   3.225
   30CHL1   C18 2173   7.428   5.987   3.234
   30CHL1  H18A 2174   7.328   6.008   3.277
   30CHL1  H18B 2175   7.415   5.946   3.131
   30CHL1  H18C 2176   7.472   5.905   3.293
   30CHL1   C12 2177   7.432   6.223   3.146
   30CHL1  H12A 2178   7.329   6.227   3.186
   30CHL1  H12B 2179   7.481   6.322   3.157
   30CHL1   C11 2180   7.421   6.188   2.996
   30CHL1  H11A 2181   7.365   6.092   2.986
   30CHL1  H11B 2182   7.362   6.266   2.943
   30CHL1    C9 2183   7.559   6.171   2.930
   30CHL1    H9 2184   7.610   6.270   2.945
   30CHL1   C10 2185   7.560   6.147   2.775
   30CHL1   C19 2186   7.458   6.037   2.741
   30CHL1  H19A 2187   7.451   6.018   2.632
   30CHL1  H19B 2188   7.482   5.942   2.792
   30CHL1  H19C 2189   7.357   6.070   2.773
   30CHL1    C1 2190   7.521   6.278   2.700
   30CHL1   H1A 2191   7.411   6.295   2.711
   30CHL1   H1B 2192   7.573   6.364   2.747
   30CHL1    C2 2193   7.556   6.281   2.549
   30CHL1   H2A 2194   7.540   6.383   2.509
   30CHL1   H2B 2195   7.488   6.213   2.492
   30CHL1   C20 2196   7.478   6.195   3.483
   30CHL1   H20 2197   7.397   6.121   3.500
   30CHL1   C21 2198   7.413   6.331   3.448
   30CHL1  H21A 2199   7.492   6.406   3.430
   30CHL1  H21B 2200   7.348   6.367   3.530
   30CHL1  H21C 2201   7.348   6.326   3.359
   30CHL1   C22 2202   7.559   6.213   3.616
   30CHL1  H22A 2203   7.581   6.112   3.654
   30CHL1  H22B 2204   7.656   6.262   3.592
   30CHL1   C23 2205   7.493   6.298   3.730
   30CHL1  H23A 2206   7.489   6.405   3.699
   30CHL1  H23B 2207   7.389   6.264   3.747
   30CHL1   C24 2208   7.574   6.291   3.862
   30CHL1  H24A 2209   7.629   6.196   3.856
   30CHL1  H24B 2210   7.651   6.371   3.863
   30CHL1   C25 2211   7.499   6.284   3.998
   30CHL1   H25 2212   7.425   6.201   3.990
   30CHL1   C26 2213   7.600   6.250   4.109
   30CHL1  H26A 2214   7.665   6.337   4.131
   30CHL1  H26B 2215   7.551   6.218   4.202
   30CHL1  H26C 2216   7.666   6.167   4.077
   30CHL1   C27 2217   7.420   6.410   4.037
   30CHL1  H27A 2218   7.346   6.389   4.116
   30CHL1  H27B 2219   7.489   6.484   4.079
   30CHL1  H27C 2220   7.367   6.453   3.949
   31POPE     N 2221   3.231   3.952   6.264
   31POPE   HN1 2222   3.271   4.033   6.316
   31POPE   HN2 2223   3.159   3.906   6.324
   31POPE   HN3 2224   3.311   3.889   6.245
   31POPE   C12 2225   3.184   4.011   6.134
   31POPE  H12A 2226   3.112   4.092   6.157
   31POPE  H12B 2227   3.137   3.932   6.072
   31POPE   C11 2228   3.306   4.074   6.067
   31POPE  H11A 2229   3.277   4.141   5.982
   31POPE  H11B 2230   3.370   3.992   6.023
   31POPE     P 2231   3.531   4.146   6.178
   31POPE   O13 2232   3.573   4.005   6.188
   31POPE   O14 2233   3.574   4.238   6.286
   31POPE   O11 2234   3.570   4.208   6.041
   31POPE   O12 2235   3.373   4.152   6.166
   31POPE    C1 2236   3.565   4.350   6.032
   31POPE    HA 2237   3.639   4.396   6.102
   31POPE    HB 2238   3.465   4.391   6.059
   31POPE    C2 2239   3.608   4.387   5.889
   31POPE    HS 2240   3.622   4.497   5.883
   31POPE   O21 2241   3.518   4.344   5.786
   31POPE   C21 2242   3.394   4.384   5.795
   31POPE   O22 2243   3.349   4.465   5.874
   31POPE   C22 2244   3.313   4.324   5.681
   31POPE   H2R 2245   3.208   4.357   5.695
   31POPE   H2S 2246   3.317   4.213   5.690
   31POPE    C3 2247   3.745   4.318   5.865
   31POPE    HX 2248   3.733   4.207   5.877
   31POPE    HY 2249   3.815   4.352   5.943
   31POPE   O31 2250   3.797   4.354   5.737
   31POPE   C31 2251   3.768   4.271   5.637
   31POPE   O32 2252   3.718   4.160   5.646
   31POPE   C32 2253   3.811   4.339   5.507
   31POPE   H2X 2254   3.905   4.393   5.531
   31POPE   H2Y 2255   3.734   4.414   5.478
   31POPE   C23 2256   3.363   4.370   5.542
   31POPE   H3R 2257   3.465   4.332   5.523
   31POPE   H3S 2258   3.367   4.481   5.541
   31POPE   C24 2259   3.269   4.326   5.429
   31POPE   H4R 2260   3.293   4.384   5.337
   31POPE   H4S 2261   3.165   4.350   5.458
   31POPE   C25 2262   3.276   4.176   5.395
   31POPE   H5R 2263   3.293   4.118   5.488
   31POPE   H5S 2264   3.363   4.157   5.328
   31POPE   C26 2265   3.147   4.124   5.329
   31POPE   H6R 2266   3.063   4.136   5.402
   31POPE   H6S 2267   3.157   4.015   5.309
   31POPE   C27 2268   3.108   4.197   5.199
   31POPE   H7R 2269   3.113   4.306   5.216
   31POPE   H7S 2270   3.002   4.172   5.176
   31POPE   C28 2271   3.195   4.158   5.079
   31POPE   H8R 2272   3.166   4.056   5.046
   31POPE   H8S 2273   3.300   4.152   5.113
   31POPE   C29 2274   3.180   4.256   4.964
   31POPE   H91 2275   3.080   4.255   4.917
   31POPE  C210 2276   3.273   4.340   4.914
   31POPE  H101 2277   3.246   4.405   4.830
   31POPE  C211 2278   3.416   4.356   4.962
   31POPE  H11R 2279   3.439   4.289   5.048
   31POPE  H11S 2280   3.431   4.459   5.000
   31POPE  C212 2281   3.521   4.328   4.852
   31POPE  H12R 2282   3.622   4.328   4.900
   31POPE  H12S 2283   3.520   4.409   4.777
   31POPE  C213 2284   3.503   4.193   4.780
   31POPE  H13R 2285   3.414   4.198   4.713
   31POPE  H13S 2286   3.481   4.115   4.856
   31POPE  C214 2287   3.626   4.149   4.699
   31POPE  H14R 2288   3.714   4.148   4.766
   31POPE  H14S 2289   3.645   4.222   4.617
   31POPE  C215 2290   3.608   4.008   4.640
   31POPE  H15R 2291   3.521   4.006   4.572
   31POPE  H15S 2292   3.584   3.939   4.724
   31POPE  C216 2293   3.733   3.952   4.571
   31POPE  H16R 2294   3.717   3.843   4.554
   31POPE  H16S 2295   3.820   3.962   4.640
   31POPE  C217 2296   3.767   4.016   4.436
   31POPE  H17R 2297   3.856   3.964   4.395
   31POPE  H17S 2298   3.794   4.123   4.451
   31POPE  C218 2299   3.653   4.008   4.333
   31POPE  H18R 2300   3.565   4.067   4.367
   31POPE  H18S 2301   3.621   3.903   4.318
   31POPE  H18T 2302   3.687   4.050   4.236
   31POPE   C33 2303   3.843   4.246   5.389
   31POPE   H3X 2304   3.899   4.157   5.426
   31POPE   H3Y 2305   3.909   4.299   5.316
   31POPE   C34 2306   3.717   4.202   5.313
   31POPE   H4X 2307   3.670   4.286   5.258
   31POPE   H4Y 2308   3.644   4.165   5.389
   31POPE   C35 2309   3.750   4.087   5.218
   31POPE   H5X 2310   3.837   4.031   5.263
   31POPE   H5Y 2311   3.782   4.122   5.118
   31POPE   C36 2312   3.636   3.986   5.209
   31POPE   H6X 2313   3.571   3.989   5.299
   31POPE   H6Y 2314   3.690   3.890   5.212
   31POPE   C37 2315   3.553   3.992   5.081
   31POPE   H7X 2316   3.620   3.982   4.993
   31POPE   H7Y 2317   3.503   4.091   5.075
   31POPE   C38 2318   3.447   3.881   5.075
   31POPE   H8X 2319   3.372   3.895   5.156
   31POPE   H8Y 2320   3.496   3.782   5.090
   31POPE   C39 2321   3.377   3.869   4.940
   31POPE   H9X 2322   3.454   3.861   4.860
   31POPE   H9Y 2323   3.318   3.961   4.921
   31POPE  C310 2324   3.289   3.744   4.931
   31POPE  H10X 2325   3.212   3.749   5.012
   31POPE  H10Y 2326   3.351   3.653   4.950
   31POPE  C311 2327   3.220   3.730   4.795
   31POPE  H11X 2328   3.148   3.644   4.800
   31POPE  H11Y 2329   3.294   3.706   4.716
   31POPE  C312 2330   3.144   3.857   4.756
   31POPE  H12X 2331   3.215   3.938   4.730
   31POPE  H12Y 2332   3.086   3.891   4.845
   31POPE  C313 2333   3.046   3.836   4.641
   31POPE  H13X 2334   2.965   3.912   4.651
   31POPE  H13Y 2335   2.999   3.735   4.653
   31POPE  C314 2336   3.103   3.846   4.499
   31POPE  H14X 2337   3.019   3.827   4.428
   31POPE  H14Y 2338   3.177   3.764   4.484
   31POPE  C315 2339   3.169   3.980   4.462
   31POPE  H15X 2340   3.178   3.982   4.351
   31POPE  H15Y 2341   3.273   3.982   4.503
   31POPE  C316 2342   3.096   4.108   4.507
   31POPE  H16X 2343   3.138   4.144   4.604
   31POPE  H16Y 2344   2.988   4.090   4.521
   31POPE  H16Z 2345   3.109   4.189   4.433
   32POPE     N 2346   4.493   4.331   6.138
   32POPE   HN1 2347   4.506   4.229   6.155
   32POPE   HN2 2348   4.536   4.381   6.219
   32POPE   HN3 2349   4.393   4.356   6.134
   32POPE   C12 2350   4.579   4.383   6.025
   32POPE  H12A 2351   4.529   4.474   5.984
   32POPE  H12B 2352   4.590   4.306   5.947
   32POPE   C11 2353   4.711   4.424   6.089
   32POPE  H11A 2354   4.775   4.476   6.015
   32POPE  H11B 2355   4.767   4.335   6.126
   32POPE     P 2356   4.785   4.597   6.271
   32POPE   O13 2357   4.889   4.508   6.327
   32POPE   O14 2358   4.704   4.677   6.368
   32POPE   O11 2359   4.844   4.684   6.152
   32POPE   O12 2360   4.677   4.508   6.198
   32POPE    C1 2361   4.765   4.773   6.073
   32POPE    HA 2362   4.786   4.878   6.102
   32POPE    HB 2363   4.656   4.756   6.088
   32POPE    C2 2364   4.793   4.756   5.919
   32POPE    HS 2365   4.802   4.647   5.901
   32POPE   O21 2366   4.914   4.826   5.882
   32POPE   C21 2367   4.976   4.780   5.773
   32POPE   O22 2368   4.949   4.677   5.715
   32POPE   C22 2369   5.080   4.888   5.734
   32POPE   H2R 2370   5.162   4.881   5.808
   32POPE   H2S 2371   5.028   4.986   5.744
   32POPE    C3 2372   4.675   4.810   5.834
   32POPE    HX 2373   4.692   4.920   5.820
   32POPE    HY 2374   4.581   4.801   5.891
   32POPE   O31 2375   4.660   4.735   5.711
   32POPE   C31 2376   4.695   4.799   5.600
   32POPE   O32 2377   4.730   4.916   5.593
   32POPE   C32 2378   4.697   4.702   5.481
   32POPE   H2X 2379   4.755   4.612   5.514
   32POPE   H2Y 2380   4.754   4.753   5.401
   32POPE   C23 2381   5.138   4.880   5.590
   32POPE   H3R 2382   5.200   4.788   5.581
   32POPE   H3S 2383   5.205   4.967   5.574
   32POPE   C24 2384   5.029   4.880   5.482
   32POPE   H4R 2385   4.964   4.970   5.491
   32POPE   H4S 2386   4.966   4.790   5.499
   32POPE   C25 2387   5.083   4.870   5.339
   32POPE   H5R 2388   5.177   4.811   5.344
   32POPE   H5S 2389   5.108   4.972   5.300
   32POPE   C26 2390   4.991   4.797   5.238
   32POPE   H6R 2391   5.043   4.802   5.140
   32POPE   H6S 2392   4.894   4.851   5.228
   32POPE   C27 2393   4.970   4.648   5.271
   32POPE   H7R 2394   4.901   4.630   5.355
   32POPE   H7S 2395   5.069   4.615   5.311
   32POPE   C28 2396   4.938   4.553   5.151
   32POPE   H8R 2397   4.968   4.454   5.195
   32POPE   H8S 2398   5.014   4.581   5.075
   32POPE   C29 2399   4.808   4.521   5.080
   32POPE   H91 2400   4.725   4.492   5.146
   32POPE  C210 2401   4.787   4.515   4.946
   32POPE  H101 2402   4.689   4.482   4.909
   32POPE  C211 2403   4.889   4.541   4.837
   32POPE  H11R 2404   4.993   4.523   4.873
   32POPE  H11S 2405   4.878   4.648   4.828
   32POPE  C212 2406   4.880   4.486   4.690
   32POPE  H12R 2407   4.779   4.491   4.647
   32POPE  H12S 2408   4.900   4.378   4.698
   32POPE  C213 2409   4.990   4.540   4.593
   32POPE  H13R 2410   5.023   4.457   4.527
   32POPE  H13S 2411   5.077   4.566   4.657
   32POPE  C214 2412   4.966   4.658   4.497
   32POPE  H14R 2413   5.050   4.729   4.515
   32POPE  H14S 2414   4.876   4.715   4.519
   32POPE  C215 2415   4.970   4.622   4.347
   32POPE  H15R 2416   5.058   4.556   4.328
   32POPE  H15S 2417   4.987   4.716   4.289
   32POPE  C216 2418   4.843   4.558   4.290
   32POPE  H16R 2419   4.830   4.458   4.338
   32POPE  H16S 2420   4.857   4.540   4.181
   32POPE  C217 2421   4.714   4.639   4.310
   32POPE  H17R 2422   4.718   4.704   4.400
   32POPE  H17S 2423   4.631   4.567   4.329
   32POPE  C218 2424   4.675   4.726   4.190
   32POPE  H18R 2425   4.567   4.750   4.194
   32POPE  H18S 2426   4.696   4.675   4.094
   32POPE  H18T 2427   4.734   4.820   4.190
   32POPE   C33 2428   4.562   4.655   5.422
   32POPE   H3X 2429   4.495   4.620   5.504
   32POPE   H3Y 2430   4.584   4.566   5.359
   32POPE   C34 2431   4.487   4.757   5.332
   32POPE   H4X 2432   4.444   4.835   5.399
   32POPE   H4Y 2433   4.401   4.703   5.287
   32POPE   C35 2434   4.567   4.825   5.217
   32POPE   H5X 2435   4.619   4.745   5.160
   32POPE   H5Y 2436   4.645   4.890   5.263
   32POPE   C36 2437   4.484   4.912   5.115
   32POPE   H6X 2438   4.448   5.001   5.171
   32POPE   H6Y 2439   4.395   4.854   5.083
   32POPE   C37 2440   4.562   4.965   4.988
   32POPE   H7X 2441   4.642   4.891   4.971
   32POPE   H7Y 2442   4.609   5.060   5.020
   32POPE   C38 2443   4.485   4.988   4.852
   32POPE   H8X 2444   4.387   5.034   4.875
   32POPE   H8Y 2445   4.463   4.886   4.812
   32POPE   C39 2446   4.549   5.072   4.732
   32POPE   H9X 2447   4.656   5.071   4.746
   32POPE   H9Y 2448   4.528   5.180   4.743
   32POPE  C310 2449   4.521   5.021   4.585
   32POPE  H10X 2450   4.421   4.972   4.576
   32POPE  H10Y 2451   4.595   4.944   4.572
   32POPE  C311 2452   4.567   5.091   4.451
   32POPE  H11X 2453   4.597   5.194   4.473
   32POPE  H11Y 2454   4.476   5.100   4.387
   32POPE  C312 2455   4.675   5.012   4.366
   32POPE  H12X 2456   4.612   4.932   4.322
   32POPE  H12Y 2457   4.750   4.961   4.429
   32POPE  C313 2458   4.749   5.084   4.246
   32POPE  H13X 2459   4.714   5.188   4.240
   32POPE  H13Y 2460   4.713   5.031   4.154
   32POPE  C314 2461   4.906   5.082   4.227
   32POPE  H14X 2462   4.923   5.035   4.126
   32POPE  H14Y 2463   4.955   5.014   4.299
   32POPE  C315 2464   4.978   5.221   4.214
   32POPE  H15X 2465   4.902   5.301   4.221
   32POPE  H15Y 2466   5.014   5.227   4.109
   32POPE  C316 2467   5.102   5.263   4.298
   32POPE  H16X 2468   5.171   5.323   4.234
   32POPE  H16Y 2469   5.161   5.178   4.338
   32POPE  H16Z 2470   5.075   5.330   4.381
   33POPE     N 2471   2.880   4.218   6.272
   33POPE   HN1 2472   2.932   4.278   6.206
   33POPE   HN2 2473   2.817   4.284   6.323
   33POPE   HN3 2474   2.948   4.178   6.341
   33POPE   C12 2475   2.792   4.118   6.202
   33POPE  H12A 2476   2.728   4.070   6.279
   33POPE  H12B 2477   2.855   4.042   6.153
   33POPE   C11 2478   2.707   4.197   6.104
   33POPE  H11A 2479   2.634   4.128   6.056
   33POPE  H11B 2480   2.770   4.239   6.022
   33POPE     P 2481   2.491   4.322   6.178
   33POPE   O13 2482   2.449   4.453   6.231
   33POPE   O14 2483   2.437   4.202   6.246
   33POPE   O11 2484   2.460   4.310   6.023
   33POPE   O12 2485   2.648   4.305   6.176
   33POPE    C1 2486   2.344   4.238   5.983
   33POPE    HA 2487   2.253   4.276   6.036
   33POPE    HB 2488   2.355   4.131   6.010
   33POPE    C2 2489   2.315   4.250   5.830
   33POPE    HS 2490   2.238   4.176   5.806
   33POPE   O21 2491   2.427   4.223   5.746
   33POPE   C21 2492   2.491   4.111   5.765
   33POPE   O22 2493   2.449   4.012   5.824
   33POPE   C22 2494   2.629   4.122   5.700
   33POPE   H2R 2495   2.629   4.058   5.609
   33POPE   H2S 2496   2.704   4.083   5.772
   33POPE    C3 2497   2.260   4.392   5.794
   33POPE    HX 2498   2.217   4.436   5.887
   33POPE    HY 2499   2.177   4.381   5.722
   33POPE   O31 2500   2.364   4.479   5.747
   33POPE   C31 2501   2.362   4.522   5.623
   33POPE   O32 2502   2.274   4.504   5.541
   33POPE   C32 2503   2.491   4.603   5.602
   33POPE   H2X 2504   2.575   4.535   5.625
   33POPE   H2Y 2505   2.493   4.685   5.677
   33POPE   C23 2506   2.664   4.266   5.658
   33POPE   H3R 2507   2.647   4.336   5.744
   33POPE   H3S 2508   2.594   4.297   5.577
   33POPE   C24 2509   2.808   4.282   5.612
   33POPE   H4R 2510   2.834   4.208   5.533
   33POPE   H4S 2511   2.874   4.262   5.700
   33POPE   C25 2512   2.835   4.424   5.563
   33POPE   H5R 2513   2.945   4.436   5.556
   33POPE   H5S 2514   2.797   4.496   5.638
   33POPE   C26 2515   2.774   4.456   5.426
   33POPE   H6R 2516   2.787   4.565   5.408
   33POPE   H6S 2517   2.665   4.433   5.424
   33POPE   C27 2518   2.843   4.381   5.311
   33POPE   H7R 2519   2.811   4.275   5.309
   33POPE   H7S 2520   2.952   4.383   5.333
   33POPE   C28 2521   2.820   4.449   5.175
   33POPE   H8R 2522   2.897   4.413   5.104
   33POPE   H8S 2523   2.835   4.558   5.184
   33POPE   C29 2524   2.680   4.418   5.129
   33POPE   H91 2525   2.601   4.480   5.174
   33POPE  C210 2526   2.648   4.323   5.041
   33POPE  H101 2527   2.543   4.311   5.009
   33POPE  C211 2528   2.747   4.231   4.975
   33POPE  H11R 2529   2.701   4.131   4.958
   33POPE  H11S 2530   2.838   4.214   5.037
   33POPE  C212 2531   2.790   4.291   4.841
   33POPE  H12R 2532   2.861   4.221   4.792
   33POPE  H12S 2533   2.844   4.388   4.856
   33POPE  C213 2534   2.671   4.316   4.748
   33POPE  H13R 2535   2.613   4.406   4.780
   33POPE  H13S 2536   2.602   4.228   4.756
   33POPE  C214 2537   2.712   4.329   4.602
   33POPE  H14R 2538   2.622   4.318   4.538
   33POPE  H14S 2539   2.780   4.243   4.582
   33POPE  C215 2540   2.793   4.450   4.558
   33POPE  H15R 2541   2.789   4.451   4.446
   33POPE  H15S 2542   2.899   4.431   4.587
   33POPE  C216 2543   2.753   4.587   4.611
   33POPE  H16R 2544   2.717   4.581   4.716
   33POPE  H16S 2545   2.672   4.629   4.547
   33POPE  C217 2546   2.874   4.680   4.608
   33POPE  H17R 2547   2.948   4.640   4.682
   33POPE  H17S 2548   2.846   4.782   4.642
   33POPE  C218 2549   2.941   4.687   4.471
   33POPE  H18R 2550   2.918   4.785   4.423
   33POPE  H18S 2551   2.908   4.608   4.401
   33POPE  H18T 2552   3.051   4.677   4.480
   33POPE   C33 2553   2.511   4.661   5.461
   33POPE   H3X 2554   2.499   4.579   5.387
   33POPE   H3Y 2555   2.616   4.698   5.454
   33POPE   C34 2556   2.418   4.778   5.426
   33POPE   H4X 2557   2.431   4.859   5.502
   33POPE   H4Y 2558   2.313   4.744   5.430
   33POPE   C35 2559   2.446   4.838   5.287
   33POPE   H5X 2560   2.545   4.889   5.289
   33POPE   H5Y 2561   2.369   4.915   5.265
   33POPE   C36 2562   2.448   4.736   5.172
   33POPE   H6X 2563   2.541   4.675   5.179
   33POPE   H6Y 2564   2.455   4.795   5.078
   33POPE   C37 2565   2.326   4.643   5.168
   33POPE   H7X 2566   2.234   4.706   5.163
   33POPE   H7Y 2567   2.319   4.583   5.262
   33POPE   C38 2568   2.326   4.544   5.049
   33POPE   H8X 2569   2.242   4.472   5.060
   33POPE   H8Y 2570   2.421   4.487   5.051
   33POPE   C39 2571   2.314   4.616   4.915
   33POPE   H9X 2572   2.392   4.695   4.912
   33POPE   H9Y 2573   2.215   4.665   4.906
   33POPE  C310 2574   2.337   4.529   4.790
   33POPE  H10X 2575   2.241   4.486   4.757
   33POPE  H10Y 2576   2.407   4.446   4.812
   33POPE  C311 2577   2.397   4.617   4.680
   33POPE  H11X 2578   2.507   4.617   4.685
   33POPE  H11Y 2579   2.365   4.722   4.703
   33POPE  C312 2580   2.344   4.593   4.538
   33POPE  H12X 2581   2.378   4.679   4.478
   33POPE  H12Y 2582   2.234   4.596   4.539
   33POPE  C313 2583   2.399   4.475   4.459
   33POPE  H13X 2584   2.357   4.379   4.494
   33POPE  H13Y 2585   2.509   4.473   4.473
   33POPE  C314 2586   2.372   4.500   4.309
   33POPE  H14X 2587   2.391   4.607   4.286
   33POPE  H14Y 2588   2.265   4.480   4.288
   33POPE  C315 2589   2.462   4.420   4.215
   33POPE  H15X 2590   2.447   4.313   4.238
   33POPE  H15Y 2591   2.568   4.439   4.240
   33POPE  C316 2592   2.434   4.450   4.067
   33POPE  H16X 2593   2.493   4.384   4.001
   33POPE  H16Y 2594   2.459   4.555   4.043
   33POPE  H16Z 2595   2.327   4.439   4.043
   34POPE     N 2596   2.265   3.797   6.035
   34POPE   HN1 2597   2.230   3.793   5.937
   34POPE   HN2 2598   2.187   3.825   6.098
   34POPE   HN3 2599   2.344   3.865   6.039
   34POPE   C12 2600   2.309   3.659   6.077
   34POPE  H12A 2601   2.357   3.668   6.176
   34POPE  H12B 2602   2.382   3.621   6.003
   34POPE   C11 2603   2.187   3.565   6.087
   34POPE  H11A 2604   2.222   3.463   6.115
   34POPE  H11B 2605   2.137   3.560   5.988
   34POPE     P 2606   1.971   3.530   6.238
   34POPE   O13 2607   1.916   3.603   6.354
   34POPE   O14 2608   2.004   3.388   6.256
   34POPE   O11 2609   1.868   3.543   6.120
   34POPE   O12 2610   2.096   3.615   6.184
   34POPE    C1 2611   1.778   3.655   6.118
   34POPE    HA 2612   1.748   3.693   6.219
   34POPE    HB 2613   1.683   3.621   6.073
   34POPE    C2 2614   1.830   3.771   6.031
   34POPE    HS 2615   1.742   3.825   5.989
   34POPE   O21 2616   1.917   3.717   5.930
   34POPE   C21 2617   1.856   3.685   5.820
   34POPE   O22 2618   1.740   3.704   5.791
   34POPE   C22 2619   1.957   3.623   5.728
   34POPE   H2R 2620   2.052   3.680   5.732
   34POPE   H2S 2621   1.912   3.633   5.627
   34POPE    C3 2622   1.916   3.876   6.106
   34POPE    HX 2623   1.974   3.822   6.184
   34POPE    HY 2624   1.848   3.947   6.159
   34POPE   O31 2625   2.008   3.943   6.016
   34POPE   C31 2626   1.941   4.017   5.927
   34POPE   O32 2627   1.827   4.053   5.937
   34POPE   C32 2628   2.024   4.053   5.807
   34POPE   H2X 2629   2.114   3.990   5.799
   34POPE   H2Y 2630   2.051   4.160   5.823
   34POPE   C23 2631   1.978   3.475   5.761
   34POPE   H3R 2632   1.887   3.428   5.804
   34POPE   H3S 2633   2.058   3.458   5.836
   34POPE   C24 2634   2.012   3.402   5.633
   34POPE   H4R 2635   1.942   3.432   5.553
   34POPE   H4S 2636   2.002   3.292   5.646
   34POPE   C25 2637   2.155   3.437   5.598
   34POPE   H5R 2638   2.219   3.386   5.673
   34POPE   H5S 2639   2.174   3.546   5.606
   34POPE   C26 2640   2.191   3.392   5.459
   34POPE   H6R 2641   2.171   3.283   5.447
   34POPE   H6S 2642   2.299   3.412   5.448
   34POPE   C27 2643   2.123   3.469   5.346
   34POPE   H7R 2644   2.014   3.456   5.359
   34POPE   H7S 2645   2.151   3.421   5.250
   34POPE   C28 2646   2.164   3.618   5.338
   34POPE   H8R 2647   2.184   3.640   5.231
   34POPE   H8S 2648   2.262   3.632   5.389
   34POPE   C29 2649   2.061   3.713   5.392
   34POPE   H91 2650   2.057   3.721   5.502
   34POPE  C210 2651   1.979   3.792   5.320
   34POPE  H101 2652   1.907   3.856   5.373
   34POPE  C211 2653   1.972   3.805   5.170
   34POPE  H11R 2654   2.069   3.781   5.120
   34POPE  H11S 2655   1.952   3.911   5.143
   34POPE  C212 2656   1.861   3.717   5.110
   34POPE  H12R 2657   1.835   3.752   5.008
   34POPE  H12S 2658   1.769   3.731   5.171
   34POPE  C213 2659   1.897   3.567   5.106
   34POPE  H13R 2660   1.807   3.507   5.080
   34POPE  H13S 2661   1.923   3.536   5.208
   34POPE  C214 2662   2.009   3.530   5.008
   34POPE  H14R 2663   2.015   3.419   5.001
   34POPE  H14S 2664   2.107   3.566   5.045
   34POPE  C215 2665   1.986   3.588   4.869
   34POPE  H15R 2666   1.982   3.699   4.874
   34POPE  H15S 2667   1.888   3.552   4.830
   34POPE  C216 2668   2.095   3.553   4.769
   34POPE  H16R 2669   2.115   3.444   4.770
   34POPE  H16S 2670   2.191   3.599   4.798
   34POPE  C217 2671   2.054   3.604   4.631
   34POPE  H17R 2672   2.023   3.711   4.640
   34POPE  H17S 2673   1.966   3.549   4.593
   34POPE  C218 2674   2.169   3.594   4.532
   34POPE  H18R 2675   2.251   3.656   4.572
   34POPE  H18S 2676   2.140   3.628   4.430
   34POPE  H18T 2677   2.212   3.494   4.527
   34POPE   C33 2678   1.935   4.049   5.683
   34POPE   H3X 2679   1.861   4.133   5.693
   34POPE   H3Y 2680   1.877   3.954   5.679
   34POPE   C34 2681   2.005   4.067   5.549
   34POPE   H4X 2682   1.926   4.067   5.470
   34POPE   H4Y 2683   2.074   3.982   5.529
   34POPE   C35 2684   2.080   4.200   5.535
   34POPE   H5X 2685   2.175   4.196   5.591
   34POPE   H5Y 2686   2.018   4.282   5.579
   34POPE   C36 2687   2.108   4.237   5.389
   34POPE   H6X 2688   2.173   4.327   5.385
   34POPE   H6Y 2689   2.010   4.259   5.340
   34POPE   C37 2690   2.175   4.128   5.305
   34POPE   H7X 2691   2.186   4.165   5.201
   34POPE   H7Y 2692   2.106   4.041   5.301
   34POPE   C38 2693   2.310   4.083   5.360
   34POPE   H8X 2694   2.305   4.073   5.471
   34POPE   H8Y 2695   2.389   4.157   5.336
   34POPE   C39 2696   2.345   3.945   5.304
   34POPE   H9X 2697   2.259   3.878   5.320
   34POPE   H9Y 2698   2.430   3.902   5.360
   34POPE  C310 2699   2.376   3.952   5.155
   34POPE  H10X 2700   2.470   4.009   5.140
   34POPE  H10Y 2701   2.295   4.005   5.101
   34POPE  C311 2702   2.389   3.813   5.093
   34POPE  H11X 2703   2.292   3.760   5.097
   34POPE  H11Y 2704   2.463   3.754   5.151
   34POPE  C312 2705   2.436   3.822   4.949
   34POPE  H12X 2706   2.483   3.726   4.919
   34POPE  H12Y 2707   2.512   3.903   4.940
   34POPE  C313 2708   2.322   3.854   4.851
   34POPE  H13X 2709   2.277   3.953   4.875
   34POPE  H13Y 2710   2.242   3.779   4.861
   34POPE  C314 2711   2.379   3.855   4.710
   34POPE  H14X 2712   2.408   3.751   4.684
   34POPE  H14Y 2713   2.471   3.918   4.711
   34POPE  C315 2714   2.287   3.910   4.604
   34POPE  H15X 2715   2.288   4.021   4.614
   34POPE  H15Y 2716   2.183   3.875   4.623
   34POPE  C316 2717   2.330   3.868   4.463
   34POPE  H16X 2718   2.243   3.868   4.394
   34POPE  H16Y 2719   2.374   3.766   4.462
   34POPE  H16Z 2720   2.408   3.934   4.421
   35POPE     N 2721   5.181   5.165   5.895
   35POPE   HN1 2722   5.235   5.089   5.849
   35POPE   HN2 2723   5.107   5.202   5.831
   35POPE   HN3 2724   5.250   5.240   5.922
   35POPE   C12 2725   5.123   5.113   6.024
   35POPE  H12A 2726   5.054   5.030   6.000
   35POPE  H12B 2727   5.068   5.195   6.074
   35POPE   C11 2728   5.239   5.066   6.112
   35POPE  H11A 2729   5.310   5.004   6.054
   35POPE  H11B 2730   5.195   5.001   6.191
   35POPE     P 2731   5.351   5.177   6.317
   35POPE   O13 2732   5.228   5.144   6.391
   35POPE   O14 2733   5.425   5.301   6.353
   35POPE   O11 2734   5.439   5.045   6.323
   35POPE   O12 2735   5.307   5.182   6.163
   35POPE    C1 2736   5.579   5.043   6.296
   35POPE    HA 2737   5.626   4.964   6.358
   35POPE    HB 2738   5.628   5.140   6.321
   35POPE    C2 2739   5.612   5.011   6.148
   35POPE    HS 2740   5.723   5.013   6.138
   35POPE   O21 2741   5.547   5.108   6.064
   35POPE   C21 2742   5.629   5.196   6.008
   35POPE   O22 2743   5.747   5.180   5.986
   35POPE   C22 2744   5.548   5.317   5.960
   35POPE   H2R 2745   5.622   5.399   5.944
   35POPE   H2S 2746   5.478   5.347   6.040
   35POPE    C3 2747   5.571   4.868   6.104
   35POPE    HX 2748   5.461   4.854   6.104
   35POPE    HY 2749   5.613   4.796   6.178
   35POPE   O31 2750   5.632   4.842   5.977
   35POPE   C31 2751   5.564   4.874   5.869
   35POPE   O32 2752   5.446   4.905   5.863
   35POPE   C32 2753   5.663   4.882   5.752
   35POPE   H2X 2754   5.641   4.800   5.682
   35POPE   H2Y 2755   5.766   4.867   5.791
   35POPE   C23 2756   5.478   5.282   5.827
   35POPE   H3R 2757   5.426   5.185   5.834
   35POPE   H3S 2758   5.561   5.270   5.753
   35POPE   C24 2759   5.385   5.391   5.772
   35POPE   H4R 2760   5.418   5.486   5.821
   35POPE   H4S 2761   5.278   5.381   5.796
   35POPE   C25 2762   5.407   5.414   5.623
   35POPE   H5R 2763   5.516   5.400   5.604
   35POPE   H5S 2764   5.381   5.520   5.603
   35POPE   C26 2765   5.334   5.335   5.514
   35POPE   H6R 2766   5.224   5.350   5.521
   35POPE   H6S 2767   5.352   5.227   5.521
   35POPE   C27 2768   5.390   5.389   5.381
   35POPE   H7R 2769   5.499   5.390   5.395
   35POPE   H7S 2770   5.370   5.497   5.367
   35POPE   C28 2771   5.352   5.313   5.253
   35POPE   H8R 2772   5.242   5.298   5.248
   35POPE   H8S 2773   5.399   5.213   5.258
   35POPE   C29 2774   5.406   5.381   5.130
   35POPE   H91 2775   5.475   5.464   5.148
   35POPE  C210 2776   5.376   5.346   5.004
   35POPE  H101 2777   5.414   5.404   4.919
   35POPE  C211 2778   5.283   5.232   4.974
   35POPE  H11R 2779   5.185   5.278   4.951
   35POPE  H11S 2780   5.267   5.165   5.062
   35POPE  C212 2781   5.320   5.140   4.857
   35POPE  H12R 2782   5.410   5.079   4.879
   35POPE  H12S 2783   5.347   5.202   4.768
   35POPE  C213 2784   5.193   5.061   4.816
   35POPE  H13R 2785   5.207   5.009   4.721
   35POPE  H13S 2786   5.143   5.155   4.792
   35POPE  C214 2787   5.111   4.968   4.914
   35POPE  H14R 2788   5.126   4.997   5.020
   35POPE  H14S 2789   5.146   4.866   4.896
   35POPE  C215 2790   4.966   4.917   4.891
   35POPE  H15R 2791   4.896   4.999   4.916
   35POPE  H15S 2792   4.941   4.836   4.962
   35POPE  C216 2793   4.942   4.860   4.749
   35POPE  H16R 2794   4.992   4.764   4.735
   35POPE  H16S 2795   4.996   4.924   4.675
   35POPE  C217 2796   4.791   4.868   4.713
   35POPE  H17R 2797   4.788   4.942   4.631
   35POPE  H17S 2798   4.752   4.917   4.804
   35POPE  C218 2799   4.689   4.752   4.692
   35POPE  H18R 2800   4.642   4.721   4.787
   35POPE  H18S 2801   4.725   4.669   4.633
   35POPE  H18T 2802   4.601   4.776   4.630
   35POPE   C33 2803   5.656   5.019   5.682
   35POPE   H3X 2804   5.740   5.028   5.609
   35POPE   H3Y 2805   5.675   5.099   5.757
   35POPE   C34 2806   5.526   5.043   5.605
   35POPE   H4X 2807   5.539   5.139   5.549
   35POPE   H4Y 2808   5.440   5.056   5.672
   35POPE   C35 2809   5.492   4.932   5.505
   35POPE   H5X 2810   5.415   4.865   5.549
   35POPE   H5Y 2811   5.583   4.870   5.490
   35POPE   C36 2812   5.450   4.992   5.371
   35POPE   H6X 2813   5.535   5.056   5.338
   35POPE   H6Y 2814   5.363   5.059   5.390
   35POPE   C37 2815   5.416   4.899   5.254
   35POPE   H7X 2816   5.309   4.910   5.229
   35POPE   H7Y 2817   5.436   4.793   5.280
   35POPE   C38 2818   5.490   4.936   5.124
   35POPE   H8X 2819   5.597   4.950   5.149
   35POPE   H8Y 2820   5.453   5.034   5.087
   35POPE   C39 2821   5.483   4.828   5.015
   35POPE   H9X 2822   5.498   4.726   5.057
   35POPE   H9Y 2823   5.553   4.854   4.934
   35POPE  C310 2824   5.356   4.806   4.943
   35POPE  H10X 2825   5.341   4.898   4.890
   35POPE  H10Y 2826   5.278   4.788   5.021
   35POPE  C311 2827   5.349   4.697   4.835
   35POPE  H11X 2828   5.240   4.680   4.820
   35POPE  H11Y 2829   5.396   4.606   4.879
   35POPE  C312 2830   5.409   4.714   4.694
   35POPE  H12X 2831   5.349   4.649   4.625
   35POPE  H12Y 2832   5.511   4.668   4.697
   35POPE  C313 2833   5.423   4.853   4.629
   35POPE  H13X 2834   5.516   4.848   4.568
   35POPE  H13Y 2835   5.441   4.931   4.705
   35POPE  C314 2836   5.315   4.896   4.529
   35POPE  H14X 2837   5.329   5.005   4.507
   35POPE  H14Y 2838   5.213   4.882   4.572
   35POPE  C315 2839   5.315   4.824   4.394
   35POPE  H15X 2840   5.298   4.715   4.414
   35POPE  H15Y 2841   5.413   4.834   4.343
   35POPE  C316 2842   5.203   4.877   4.305
   35POPE  H16X 2843   5.107   4.876   4.362
   35POPE  H16Y 2844   5.191   4.816   4.213
   35POPE  H16Z 2845   5.222   4.982   4.277
   36POPE     N 2846   2.009   4.399   6.373
   36POPE   HN1 2847   1.957   4.335   6.436
   36POPE   HN2 2848   2.095   4.439   6.417
   36POPE   HN3 2849   1.946   4.481   6.355
   36POPE   C12 2850   2.037   4.330   6.242
   36POPE  H12A 2851   2.132   4.273   6.252
   36POPE  H12B 2852   2.050   4.409   6.165
   36POPE   C11 2853   1.919   4.239   6.204
   36POPE  H11A 2854   1.936   4.140   6.252
   36POPE  H11B 2855   1.921   4.221   6.094
   36POPE     P 2856   1.718   4.401   6.156
   36POPE   O13 2857   1.819   4.504   6.122
   36POPE   O14 2858   1.600   4.449   6.232
   36POPE   O11 2859   1.676   4.311   6.030
   36POPE   O12 2860   1.792   4.292   6.246
   36POPE    C1 2861   1.586   4.198   6.040
   36POPE    HA 2862   1.512   4.213   6.123
   36POPE    HB 2863   1.641   4.105   6.064
   36POPE    C2 2864   1.499   4.168   5.911
   36POPE    HS 2865   1.441   4.074   5.928
   36POPE   O21 2866   1.573   4.159   5.787
   36POPE   C21 2867   1.594   4.047   5.722
   36POPE   O22 2868   1.592   3.935   5.769
   36POPE   C22 2869   1.634   4.083   5.575
   36POPE   H2R 2870   1.716   4.015   5.547
   36POPE   H2S 2871   1.672   4.187   5.576
   36POPE    C3 2872   1.396   4.284   5.897
   36POPE    HX 2873   1.327   4.276   5.984
   36POPE    HY 2874   1.336   4.271   5.804
   36POPE   O31 2875   1.457   4.414   5.902
   36POPE   C31 2876   1.538   4.442   5.801
   36POPE   O32 2877   1.540   4.386   5.693
   36POPE   C32 2878   1.615   4.570   5.832
   36POPE   H2X 2879   1.678   4.555   5.922
   36POPE   H2Y 2880   1.542   4.650   5.857
   36POPE   C23 2881   1.523   4.072   5.467
   36POPE   H3R 2882   1.435   4.129   5.501
   36POPE   H3S 2883   1.492   3.965   5.458
   36POPE   C24 2884   1.566   4.122   5.327
   36POPE   H4R 2885   1.592   4.230   5.330
   36POPE   H4S 2886   1.478   4.111   5.260
   36POPE   C25 2887   1.683   4.042   5.267
   36POPE   H5R 2888   1.675   3.938   5.305
   36POPE   H5S 2889   1.780   4.084   5.301
   36POPE   C26 2890   1.678   4.034   5.113
   36POPE   H6R 2891   1.577   3.998   5.084
   36POPE   H6S 2892   1.750   3.957   5.078
   36POPE   C27 2893   1.712   4.165   5.040
   36POPE   H7R 2894   1.815   4.196   5.070
   36POPE   H7S 2895   1.642   4.245   5.071
   36POPE   C28 2896   1.709   4.147   4.887
   36POPE   H8R 2897   1.790   4.077   4.859
   36POPE   H8S 2898   1.733   4.242   4.836
   36POPE   C29 2899   1.573   4.103   4.841
   36POPE   H91 2900   1.492   4.175   4.863
   36POPE  C210 2901   1.543   3.989   4.777
   36POPE  H101 2902   1.439   3.969   4.751
   36POPE  C211 2903   1.640   3.881   4.736
   36POPE  H11R 2904   1.615   3.787   4.790
   36POPE  H11S 2905   1.745   3.904   4.762
   36POPE  C212 2906   1.633   3.854   4.584
   36POPE  H12R 2907   1.531   3.818   4.560
   36POPE  H12S 2908   1.704   3.773   4.558
   36POPE  C213 2909   1.661   3.977   4.496
   36POPE  H13R 2910   1.586   4.055   4.523
   36POPE  H13S 2911   1.644   3.950   4.389
   36POPE  C214 2912   1.797   4.045   4.509
   36POPE  H14R 2913   1.876   3.983   4.463
   36POPE  H14S 2914   1.821   4.055   4.618
   36POPE  C215 2915   1.797   4.187   4.449
   36POPE  H15R 2916   1.877   4.246   4.499
   36POPE  H15S 2917   1.702   4.240   4.474
   36POPE  C216 2918   1.820   4.190   4.296
   36POPE  H16R 2919   1.726   4.153   4.248
   36POPE  H16S 2920   1.900   4.120   4.268
   36POPE  C217 2921   1.853   4.330   4.239
   36POPE  H17R 2922   1.803   4.408   4.300
   36POPE  H17S 2923   1.809   4.334   4.138
   36POPE  C218 2924   2.000   4.365   4.216
   36POPE  H18R 2925   2.049   4.286   4.155
   36POPE  H18S 2926   2.055   4.377   4.311
   36POPE  H18T 2927   2.010   4.461   4.159
   36POPE   C33 2928   1.702   4.616   5.714
   36POPE   H3X 2929   1.734   4.721   5.734
   36POPE   H3Y 2930   1.644   4.618   5.619
   36POPE   C34 2931   1.825   4.527   5.700
   36POPE   H4X 2932   1.796   4.421   5.684
   36POPE   H4Y 2933   1.881   4.533   5.797
   36POPE   C35 2934   1.917   4.575   5.588
   36POPE   H5X 2935   2.016   4.525   5.599
   36POPE   H5Y 2936   1.930   4.684   5.604
   36POPE   C36 2937   1.866   4.554   5.444
   36POPE   H6X 2938   1.790   4.632   5.420
   36POPE   H6Y 2939   1.817   4.455   5.434
   36POPE   C37 2940   1.984   4.562   5.348
   36POPE   H7X 2941   2.032   4.464   5.342
   36POPE   H7Y 2942   2.061   4.631   5.390
   36POPE   C38 2943   1.956   4.609   5.205
   36POPE   H8X 2944   2.053   4.600   5.150
   36POPE   H8Y 2945   1.927   4.715   5.208
   36POPE   C39 2946   1.853   4.533   5.123
   36POPE   H9X 2947   1.751   4.546   5.166
   36POPE   H9Y 2948   1.878   4.425   5.123
   36POPE  C310 2949   1.860   4.589   4.980
   36POPE  H10X 2950   1.968   4.597   4.953
   36POPE  H10Y 2951   1.817   4.692   4.977
   36POPE  C311 2952   1.794   4.500   4.877
   36POPE  H11X 2953   1.684   4.493   4.897
   36POPE  H11Y 2954   1.839   4.399   4.889
   36POPE  C312 2955   1.818   4.545   4.732
   36POPE  H12X 2956   1.790   4.652   4.720
   36POPE  H12Y 2957   1.751   4.485   4.666
   36POPE  C313 2958   1.962   4.522   4.686
   36POPE  H13X 2959   1.994   4.420   4.717
   36POPE  H13Y 2960   2.031   4.595   4.733
   36POPE  C314 2961   1.975   4.531   4.533
   36POPE  H14X 2962   1.894   4.472   4.486
   36POPE  H14Y 2963   2.071   4.484   4.502
   36POPE  C315 2964   1.970   4.676   4.483
   36POPE  H15X 2965   2.044   4.736   4.540
   36POPE  H15Y 2966   1.869   4.718   4.506
   36POPE  C316 2967   1.998   4.692   4.333
   36POPE  H16X 2968   1.922   4.638   4.273
   36POPE  H16Y 2969   2.098   4.652   4.308
   36POPE  H16Z 2970   1.995   4.799   4.305
   37POPE     N 2971   1.356   2.863   6.327
   37POPE   HN1 2972   1.352   2.958   6.375
   37POPE   HN2 2973   1.308   2.790   6.383
   37POPE   HN3 2974   1.458   2.842   6.311
   37POPE   C12 2975   1.307   2.881   6.187
   37POPE  H12A 2976   1.207   2.930   6.189
   37POPE  H12B 2977   1.299   2.781   6.139
   37POPE   C11 2978   1.411   2.969   6.114
   37POPE  H11A 2979   1.391   3.074   6.146
   37POPE  H11B 2980   1.395   2.962   6.004
   37POPE     P 2981   1.667   3.021   6.113
   37POPE   O13 2982   1.711   2.981   5.979
   37POPE   O14 2983   1.764   3.013   6.225
   37POPE   O11 2984   1.599   3.164   6.111
   37POPE   O12 2985   1.544   2.927   6.151
   37POPE    C1 2986   1.660   3.268   6.035
   37POPE    HA 2987   1.759   3.242   5.991
   37POPE    HB 2988   1.677   3.355   6.103
   37POPE    C2 2989   1.565   3.307   5.920
   37POPE    HS 2990   1.461   3.313   5.961
   37POPE   O21 2991   1.580   3.209   5.815
   37POPE   C21 2992   1.471   3.159   5.762
   37POPE   O22 2993   1.357   3.191   5.792
   37POPE   C22 2994   1.505   3.056   5.650
   37POPE   H2R 2995   1.432   3.076   5.569
   37POPE   H2S 2996   1.480   2.958   5.695
   37POPE    C3 2997   1.606   3.450   5.877
   37POPE    HX 2998   1.715   3.463   5.893
   37POPE    HY 2999   1.560   3.518   5.952
   37POPE   O31 3000   1.566   3.494   5.746
   37POPE   C31 3001   1.643   3.453   5.651
   37POPE   O32 3002   1.722   3.361   5.652
   37POPE   C32 3003   1.617   3.536   5.526
   37POPE   H2X 3004   1.714   3.566   5.481
   37POPE   H2Y 3005   1.560   3.627   5.554
   37POPE   C23 3006   1.651   3.049   5.591
   37POPE   H3R 3007   1.721   3.041   5.677
   37POPE   H3S 3008   1.674   3.144   5.539
   37POPE   C24 3009   1.679   2.930   5.493
   37POPE   H4R 3010   1.614   2.940   5.404
   37POPE   H4S 3011   1.649   2.837   5.546
   37POPE   C25 3012   1.828   2.913   5.446
   37POPE   H5R 3013   1.891   2.919   5.538
   37POPE   H5S 3014   1.855   2.998   5.380
   37POPE   C26 3015   1.865   2.779   5.372
   37POPE   H6R 3016   1.812   2.774   5.275
   37POPE   H6S 3017   1.824   2.698   5.437
   37POPE   C27 3018   2.015   2.740   5.353
   37POPE   H7R 3019   2.020   2.633   5.322
   37POPE   H7S 3020   2.064   2.747   5.453
   37POPE   C28 3021   2.105   2.818   5.251
   37POPE   H8R 3022   2.208   2.817   5.297
   37POPE   H8S 3023   2.073   2.922   5.257
   37POPE   C29 3024   2.124   2.769   5.108
   37POPE   H91 3025   2.050   2.688   5.092
   37POPE  C210 3026   2.196   2.808   4.995
   37POPE  H101 3027   2.178   2.737   4.913
   37POPE  C211 3028   2.308   2.908   4.944
   37POPE  H11R 3029   2.336   2.845   4.858
   37POPE  H11S 3030   2.391   2.906   5.016
   37POPE  C212 3031   2.341   3.047   4.856
   37POPE  H12R 3032   2.392   3.006   4.766
   37POPE  H12S 3033   2.420   3.102   4.909
   37POPE  C213 3034   2.243   3.155   4.792
   37POPE  H13R 3035   2.196   3.220   4.867
   37POPE  H13S 3036   2.166   3.100   4.739
   37POPE  C214 3037   2.275   3.235   4.662
   37POPE  H14R 3038   2.356   3.185   4.606
   37POPE  H14S 3039   2.309   3.338   4.687
   37POPE  C215 3040   2.159   3.237   4.555
   37POPE  H15R 3041   2.163   3.139   4.502
   37POPE  H15S 3042   2.187   3.311   4.479
   37POPE  C216 3043   2.011   3.255   4.599
   37POPE  H16R 3044   1.990   3.345   4.658
   37POPE  H16S 3045   1.993   3.170   4.666
   37POPE  C217 3046   1.898   3.238   4.494
   37POPE  H17R 3047   1.818   3.179   4.546
   37POPE  H17S 3048   1.933   3.177   4.409
   37POPE  C218 3049   1.829   3.366   4.447
   37POPE  H18R 3050   1.784   3.419   4.535
   37POPE  H18S 3051   1.747   3.343   4.376
   37POPE  H18T 3052   1.900   3.436   4.398
   37POPE   C33 3053   1.535   3.450   5.430
   37POPE   H3X 3054   1.467   3.514   5.369
   37POPE   H3Y 3055   1.474   3.380   5.491
   37POPE   C34 3056   1.614   3.362   5.335
   37POPE   H4X 3057   1.708   3.326   5.381
   37POPE   H4Y 3058   1.640   3.422   5.245
   37POPE   C35 3059   1.527   3.240   5.299
   37POPE   H5X 3060   1.428   3.276   5.263
   37POPE   H5Y 3061   1.510   3.179   5.390
   37POPE   C36 3062   1.587   3.152   5.192
   37POPE   H6X 3063   1.525   3.060   5.181
   37POPE   H6Y 3064   1.690   3.119   5.222
   37POPE   C37 3065   1.593   3.224   5.058
   37POPE   H7X 3066   1.643   3.322   5.071
   37POPE   H7Y 3067   1.491   3.242   5.019
   37POPE   C38 3068   1.679   3.147   4.961
   37POPE   H8X 3069   1.771   3.135   5.017
   37POPE   H8Y 3070   1.700   3.205   4.868
   37POPE   C39 3071   1.628   3.008   4.931
   37POPE   H9X 3072   1.613   2.948   5.024
   37POPE   H9Y 3073   1.709   2.954   4.878
   37POPE  C310 3074   1.504   3.013   4.844
   37POPE  H10X 3075   1.493   3.114   4.799
   37POPE  H10Y 3076   1.416   2.992   4.908
   37POPE  C311 3077   1.514   2.910   4.731
   37POPE  H11X 3078   1.414   2.894   4.685
   37POPE  H11Y 3079   1.542   2.816   4.784
   37POPE  C312 3080   1.619   2.942   4.623
   37POPE  H12X 3081   1.673   2.848   4.598
   37POPE  H12Y 3082   1.694   3.014   4.659
   37POPE  C313 3083   1.557   2.994   4.492
   37POPE  H13X 3084   1.531   3.101   4.507
   37POPE  H13Y 3085   1.463   2.938   4.471
   37POPE  C314 3086   1.649   2.977   4.370
   37POPE  H14X 3087   1.684   2.872   4.368
   37POPE  H14Y 3088   1.739   3.042   4.382
   37POPE  C315 3089   1.580   3.013   4.237
   37POPE  H15X 3090   1.507   2.932   4.211
   37POPE  H15Y 3091   1.656   3.016   4.156
   37POPE  C316 3092   1.507   3.146   4.244
   37POPE  H16X 3093   1.577   3.225   4.279
   37POPE  H16Y 3094   1.423   3.140   4.316
   37POPE  H16Z 3095   1.466   3.177   4.145
   38POPE     N 3096   6.361   4.790   6.102
   38POPE   HN1 3097   6.390   4.858   6.030
   38POPE   HN2 3098   6.337   4.841   6.190
   38POPE   HN3 3099   6.430   4.714   6.123
   38POPE   C12 3100   6.228   4.734   6.066
   38POPE  H12A 3101   6.207   4.649   6.136
   38POPE  H12B 3102   6.231   4.696   5.962
   38POPE   C11 3103   6.128   4.847   6.086
   38POPE  H11A 3104   6.027   4.798   6.084
   38POPE  H11B 3105   6.132   4.917   6.000
   38POPE     P 3106   6.035   5.021   6.246
   38POPE   O13 3107   6.054   5.071   6.385
   38POPE   O14 3108   5.914   4.941   6.228
   38POPE   O11 3109   6.053   5.134   6.133
   38POPE   O12 3110   6.155   4.920   6.208
   38POPE    C1 3111   6.160   5.229   6.143
   38POPE    HA 3112   6.257   5.177   6.161
   38POPE    HB 3113   6.141   5.294   6.232
   38POPE    C2 3114   6.185   5.331   6.023
   38POPE    HS 3115   6.229   5.422   6.070
   38POPE   O21 3116   6.069   5.370   5.945
   38POPE   C21 3117   6.093   5.472   5.858
   38POPE   O22 3118   6.191   5.543   5.862
   38POPE   C22 3119   5.987   5.477   5.748
   38POPE   H2R 3120   5.916   5.558   5.772
   38POPE   H2S 3121   5.931   5.380   5.747
   38POPE    C3 3122   6.294   5.273   5.925
   38POPE    HX 3123   6.385   5.277   5.987
   38POPE    HY 3124   6.314   5.340   5.840
   38POPE   O31 3125   6.275   5.136   5.880
   38POPE   C31 3126   6.183   5.125   5.782
   38POPE   O32 3127   6.117   5.214   5.735
   38POPE   C32 3128   6.188   4.984   5.725
   38POPE   H2X 3129   6.192   4.912   5.808
   38POPE   H2Y 3130   6.279   4.973   5.664
   38POPE   C23 3131   6.057   5.501   5.612
   38POPE   H3R 3132   6.142   5.431   5.599
   38POPE   H3S 3133   6.099   5.605   5.613
   38POPE   C24 3134   5.969   5.490   5.488
   38POPE   H4R 3135   6.026   5.524   5.398
   38POPE   H4S 3136   5.885   5.561   5.502
   38POPE   C25 3137   5.909   5.353   5.454
   38POPE   H5R 3138   5.894   5.290   5.544
   38POPE   H5S 3139   5.975   5.296   5.385
   38POPE   C26 3140   5.773   5.380   5.389
   38POPE   H6R 3141   5.782   5.468   5.322
   38POPE   H6S 3142   5.707   5.408   5.474
   38POPE   C27 3143   5.705   5.264   5.315
   38POPE   H7R 3144   5.610   5.302   5.272
   38POPE   H7S 3145   5.681   5.186   5.390
   38POPE   C28 3146   5.773   5.203   5.193
   38POPE   H8R 3147   5.707   5.124   5.154
   38POPE   H8S 3148   5.867   5.155   5.225
   38POPE   C29 3149   5.791   5.307   5.086
   38POPE   H91 3150   5.697   5.344   5.041
   38POPE  C210 3151   5.908   5.355   5.042
   38POPE  H101 3152   5.906   5.429   4.961
   38POPE  C211 3153   6.044   5.316   5.091
   38POPE  H11R 3154   6.056   5.331   5.200
   38POPE  H11S 3155   6.117   5.385   5.043
   38POPE  C212 3156   6.087   5.171   5.057
   38POPE  H12R 3157   6.035   5.100   5.125
   38POPE  H12S 3158   6.196   5.160   5.078
   38POPE  C213 3159   6.059   5.129   4.912
   38POPE  H13R 3160   5.949   5.125   4.896
   38POPE  H13S 3161   6.098   5.026   4.893
   38POPE  C214 3162   6.122   5.227   4.813
   38POPE  H14R 3163   6.232   5.230   4.828
   38POPE  H14S 3164   6.083   5.329   4.836
   38POPE  C215 3165   6.089   5.203   4.666
   38POPE  H15R 3166   6.131   5.291   4.611
   38POPE  H15S 3167   5.978   5.202   4.651
   38POPE  C216 3168   6.153   5.082   4.602
   38POPE  H16R 3169   6.106   4.988   4.637
   38POPE  H16S 3170   6.260   5.077   4.629
   38POPE  C217 3171   6.140   5.095   4.450
   38POPE  H17R 3172   6.197   5.184   4.415
   38POPE  H17S 3173   6.034   5.116   4.421
   38POPE  C218 3174   6.191   4.971   4.380
   38POPE  H18R 3175   6.109   4.896   4.373
   38POPE  H18S 3176   6.276   4.926   4.435
   38POPE  H18T 3177   6.226   4.997   4.279
   38POPE   C33 3178   6.062   4.957   5.641
   38POPE   H3X 3179   5.970   4.990   5.694
   38POPE   H3Y 3180   6.057   4.847   5.630
   38POPE   C34 3181   6.066   5.024   5.502
   38POPE   H4X 3182   6.159   4.998   5.448
   38POPE   H4Y 3183   6.068   5.134   5.512
   38POPE   C35 3184   5.945   4.986   5.417
   38POPE   H5X 3185   5.975   4.990   5.310
   38POPE   H5Y 3186   5.865   5.061   5.432
   38POPE   C36 3187   5.887   4.848   5.446
   38POPE   H6X 3188   5.840   4.847   5.547
   38POPE   H6Y 3189   5.965   4.769   5.446
   38POPE   C37 3190   5.781   4.813   5.343
   38POPE   H7X 3191   5.720   4.904   5.323
   38POPE   H7Y 3192   5.714   4.736   5.385
   38POPE   C38 3193   5.839   4.762   5.211
   38POPE   H8X 3194   5.920   4.689   5.223
   38POPE   H8Y 3195   5.878   4.849   5.156
   38POPE   C39 3196   5.730   4.689   5.136
   38POPE   H9X 3197   5.642   4.743   5.173
   38POPE   H9Y 3198   5.712   4.587   5.176
   38POPE  C310 3199   5.745   4.689   4.983
   38POPE  H10X 3200   5.649   4.658   4.938
   38POPE  H10Y 3201   5.817   4.614   4.946
   38POPE  C311 3202   5.793   4.819   4.919
   38POPE  H11X 3203   5.901   4.835   4.941
   38POPE  H11Y 3204   5.741   4.908   4.958
   38POPE  C312 3205   5.776   4.808   4.768
   38POPE  H12X 3206   5.668   4.803   4.742
   38POPE  H12Y 3207   5.824   4.714   4.734
   38POPE  C313 3208   5.840   4.926   4.696
   38POPE  H13X 3209   5.936   4.948   4.748
   38POPE  H13Y 3210   5.775   5.016   4.705
   38POPE  C314 3211   5.871   4.894   4.551
   38POPE  H14X 3212   5.958   4.824   4.545
   38POPE  H14Y 3213   5.899   4.988   4.500
   38POPE  C315 3214   5.755   4.834   4.474
   38POPE  H15X 3215   5.675   4.911   4.467
   38POPE  H15Y 3216   5.714   4.744   4.524
   38POPE  C316 3217   5.798   4.796   4.334
   38POPE  H16X 3218   5.849   4.698   4.337
   38POPE  H16Y 3219   5.870   4.873   4.299
   38POPE  H16Z 3220   5.713   4.792   4.263
   39POPE     N 3221   1.786   2.031   6.072
   39POPE   HN1 3222   1.748   2.061   5.980
   39POPE   HN2 3223   1.873   2.090   6.085
   39POPE   HN3 3224   1.814   1.931   6.071
   39POPE   C12 3225   1.692   2.072   6.183
   39POPE  H12A 3226   1.738   2.042   6.280
   39POPE  H12B 3227   1.598   2.015   6.168
   39POPE   C11 3228   1.665   2.225   6.186
   39POPE  H11A 3229   1.578   2.240   6.254
   39POPE  H11B 3230   1.632   2.261   6.086
   39POPE     P 3231   1.895   2.347   6.144
   39POPE   O13 3232   1.981   2.438   6.222
   39POPE   O14 3233   1.838   2.391   6.016
   39POPE   O11 3234   1.963   2.208   6.116
   39POPE   O12 3235   1.775   2.300   6.238
   39POPE    C1 3236   2.103   2.185   6.108
   39POPE    HA 3237   2.133   2.109   6.184
   39POPE    HB 3238   2.163   2.276   6.132
   39POPE    C2 3239   2.157   2.133   5.969
   39POPE    HS 3240   2.269   2.142   5.973
   39POPE   O21 3241   2.102   2.207   5.858
   39POPE   C21 3242   2.173   2.318   5.839
   39POPE   O22 3243   2.258   2.362   5.914
   39POPE   C22 3244   2.149   2.375   5.700
   39POPE   H2R 3245   2.235   2.442   5.680
   39POPE   H2S 3246   2.056   2.436   5.701
   39POPE    C3 3247   2.134   1.980   5.942
   39POPE    HX 3248   2.143   1.926   6.038
   39POPE    HY 3249   2.218   1.945   5.878
   39POPE   O31 3250   2.006   1.949   5.885
   39POPE   C31 3251   2.002   1.962   5.752
   39POPE   O32 3252   2.093   1.949   5.673
   39POPE   C32 3253   1.864   2.014   5.727
   39POPE   H2X 3254   1.863   2.123   5.750
   39POPE   H2Y 3255   1.793   1.961   5.795
   39POPE   C23 3256   2.145   2.269   5.589
   39POPE   H3R 3257   2.045   2.221   5.591
   39POPE   H3S 3258   2.219   2.188   5.607
   39POPE   C24 3259   2.171   2.330   5.451
   39POPE   H4R 3260   2.277   2.362   5.444
   39POPE   H4S 3261   2.107   2.421   5.439
   39POPE   C25 3262   2.138   2.234   5.337
   39POPE   H5R 3263   2.030   2.212   5.340
   39POPE   H5S 3264   2.195   2.139   5.348
   39POPE   C26 3265   2.165   2.295   5.200
   39POPE   H6R 3266   2.275   2.308   5.193
   39POPE   H6S 3267   2.116   2.394   5.191
   39POPE   C27 3268   2.118   2.204   5.087
   39POPE   H7R 3269   2.008   2.205   5.079
   39POPE   H7S 3270   2.148   2.099   5.112
   39POPE   C28 3271   2.181   2.243   4.953
   39POPE   H8R 3272   2.180   2.154   4.888
   39POPE   H8S 3273   2.288   2.269   4.970
   39POPE   C29 3274   2.103   2.358   4.894
   39POPE   H91 3275   2.119   2.456   4.941
   39POPE  C210 3276   2.014   2.345   4.794
   39POPE  H101 3277   1.958   2.433   4.758
   39POPE  C211 3278   1.980   2.214   4.727
   39POPE  H11R 3279   1.880   2.221   4.679
   39POPE  H11S 3280   1.972   2.132   4.802
   39POPE  C212 3281   2.086   2.172   4.623
   39POPE  H12R 3282   2.059   2.072   4.582
   39POPE  H12S 3283   2.184   2.160   4.674
   39POPE  C213 3284   2.105   2.271   4.508
   39POPE  H13R 3285   2.190   2.236   4.446
   39POPE  H13S 3286   2.134   2.370   4.551
   39POPE  C214 3287   1.980   2.291   4.420
   39POPE  H14R 3288   1.994   2.383   4.360
   39POPE  H14S 3289   1.892   2.309   4.485
   39POPE  C215 3290   1.950   2.173   4.326
   39POPE  H15R 3291   1.954   2.077   4.380
   39POPE  H15S 3292   2.026   2.166   4.247
   39POPE  C216 3293   1.815   2.190   4.257
   39POPE  H16R 3294   1.801   2.297   4.229
   39POPE  H16S 3295   1.738   2.162   4.333
   39POPE  C217 3296   1.793   2.106   4.131
   39POPE  H17R 3297   1.684   2.083   4.123
   39POPE  H17S 3298   1.849   2.011   4.142
   39POPE  C218 3299   1.834   2.174   4.002
   39POPE  H18R 3300   1.818   2.106   3.915
   39POPE  H18S 3301   1.942   2.198   4.012
   39POPE  H18T 3302   1.779   2.268   3.985
   39POPE   C33 3303   1.814   1.986   5.586
   39POPE   H3X 3304   1.705   1.998   5.599
   39POPE   H3Y 3305   1.834   1.882   5.552
   39POPE   C34 3306   1.856   2.087   5.481
   39POPE   H4X 3307   1.960   2.059   5.450
   39POPE   H4Y 3308   1.854   2.192   5.518
   39POPE   C35 3309   1.759   2.072   5.365
   39POPE   H5X 3310   1.666   2.129   5.385
   39POPE   H5Y 3311   1.735   1.964   5.359
   39POPE   C36 3312   1.813   2.109   5.228
   39POPE   H6X 3313   1.915   2.067   5.214
   39POPE   H6Y 3314   1.818   2.219   5.217
   39POPE   C37 3315   1.721   2.045   5.124
   39POPE   H7X 3316   1.618   2.036   5.166
   39POPE   H7Y 3317   1.759   1.942   5.102
   39POPE   C38 3318   1.709   2.122   4.995
   39POPE   H8X 3319   1.662   2.055   4.919
   39POPE   H8Y 3320   1.811   2.149   4.959
   39POPE   C39 3321   1.623   2.247   5.008
   39POPE   H9X 3322   1.664   2.316   5.085
   39POPE   H9Y 3323   1.519   2.221   5.036
   39POPE  C310 3324   1.628   2.310   4.871
   39POPE  H10X 3325   1.581   2.238   4.800
   39POPE  H10Y 3326   1.734   2.321   4.841
   39POPE  C311 3327   1.561   2.445   4.852
   39POPE  H11X 3328   1.624   2.526   4.895
   39POPE  H11Y 3329   1.463   2.448   4.901
   39POPE  C312 3330   1.548   2.457   4.701
   39POPE  H12X 3331   1.467   2.394   4.660
   39POPE  H12Y 3332   1.643   2.412   4.663
   39POPE  C313 3333   1.537   2.598   4.647
   39POPE  H13X 3334   1.620   2.657   4.692
   39POPE  H13Y 3335   1.439   2.643   4.675
   39POPE  C314 3336   1.556   2.599   4.496
   39POPE  H14X 3337   1.542   2.703   4.458
   39POPE  H14Y 3338   1.480   2.535   4.448
   39POPE  C315 3339   1.696   2.551   4.459
   39POPE  H15X 3340   1.716   2.446   4.489
   39POPE  H15Y 3341   1.771   2.616   4.511
   39POPE  C316 3342   1.720   2.557   4.312
   39POPE  H16X 3343   1.658   2.640   4.271
   39POPE  H16Y 3344   1.690   2.469   4.255
   39POPE  H16Z 3345   1.829   2.568   4.294
   40POPE     N 3346   6.726   4.166   6.321
   40POPE   HN1 3347   6.738   4.091   6.393
   40POPE   HN2 3348   6.818   4.175   6.269
   40POPE   HN3 3349   6.707   4.256   6.370
   40POPE   C12 3350   6.614   4.131   6.227
   40POPE  H12A 3351   6.619   4.023   6.205
   40POPE  H12B 3352   6.629   4.188   6.133
   40POPE   C11 3353   6.475   4.161   6.285
   40POPE  H11A 3354   6.468   4.265   6.324
   40POPE  H11B 3355   6.456   4.092   6.369
   40POPE     P 3356   6.332   4.243   6.084
   40POPE   O13 3357   6.440   4.258   5.985
   40POPE   O14 3358   6.300   4.365   6.165
   40POPE   O11 3359   6.197   4.183   6.027
   40POPE   O12 3360   6.376   4.132   6.187
   40POPE    C1 3361   6.192   4.045   5.989
   40POPE    HA 3362   6.087   4.011   5.997
   40POPE    HB 3363   6.253   3.979   6.055
   40POPE    C2 3364   6.238   4.023   5.842
   40POPE    HS 3365   6.195   3.926   5.808
   40POPE   O21 3366   6.381   4.014   5.844
   40POPE   C21 3367   6.446   4.032   5.732
   40POPE   O22 3368   6.400   4.026   5.619
   40POPE   C22 3369   6.593   4.054   5.762
   40POPE   H2R 3370   6.653   3.966   5.741
   40POPE   H2S 3371   6.606   4.083   5.868
   40POPE    C3 3372   6.182   4.137   5.751
   40POPE    HX 3373   6.077   4.156   5.785
   40POPE    HY 3374   6.178   4.099   5.647
   40POPE   O31 3375   6.259   4.260   5.757
   40POPE   C31 3376   6.205   4.352   5.680
   40POPE   O32 3377   6.107   4.337   5.609
   40POPE   C32 3378   6.283   4.483   5.700
   40POPE   H2X 3379   6.388   4.467   5.669
   40POPE   H2Y 3380   6.281   4.503   5.810
   40POPE   C23 3381   6.649   4.154   5.666
   40POPE   H3R 3382   6.618   4.135   5.560
   40POPE   H3S 3383   6.760   4.144   5.666
   40POPE   C24 3384   6.609   4.292   5.712
   40POPE   H4R 3385   6.651   4.313   5.813
   40POPE   H4S 3386   6.498   4.297   5.721
   40POPE   C25 3387   6.660   4.384   5.607
   40POPE   H5R 3388   6.587   4.378   5.523
   40POPE   H5S 3389   6.756   4.339   5.571
   40POPE   C26 3390   6.691   4.526   5.649
   40POPE   H6R 3391   6.743   4.528   5.747
   40POPE   H6S 3392   6.596   4.583   5.658
   40POPE   C27 3393   6.783   4.589   5.544
   40POPE   H7R 3394   6.889   4.564   5.567
   40POPE   H7S 3395   6.773   4.699   5.549
   40POPE   C28 3396   6.752   4.539   5.402
   40POPE   H8R 3397   6.771   4.430   5.394
   40POPE   H8S 3398   6.822   4.578   5.328
   40POPE   C29 3399   6.611   4.575   5.364
   40POPE   H91 3400   6.556   4.644   5.430
   40POPE  C210 3401   6.554   4.520   5.257
   40POPE  H101 3402   6.447   4.532   5.238
   40POPE  C211 3403   6.633   4.423   5.175
   40POPE  H11R 3404   6.635   4.324   5.226
   40POPE  H11S 3405   6.739   4.456   5.163
   40POPE  C212 3406   6.580   4.408   5.034
   40POPE  H12R 3407   6.585   4.505   4.980
   40POPE  H12S 3408   6.474   4.373   5.039
   40POPE  C213 3409   6.665   4.305   4.960
   40POPE  H13R 3410   6.689   4.227   5.035
   40POPE  H13S 3411   6.760   4.350   4.924
   40POPE  C214 3412   6.588   4.235   4.848
   40POPE  H14R 3413   6.486   4.214   4.886
   40POPE  H14S 3414   6.636   4.138   4.825
   40POPE  C215 3415   6.578   4.316   4.718
   40POPE  H15R 3416   6.667   4.298   4.655
   40POPE  H15S 3417   6.577   4.425   4.741
   40POPE  C216 3418   6.450   4.282   4.640
   40POPE  H16R 3419   6.454   4.329   4.540
   40POPE  H16S 3420   6.364   4.328   4.694
   40POPE  C217 3421   6.417   4.132   4.630
   40POPE  H17R 3422   6.329   4.120   4.562
   40POPE  H17S 3423   6.384   4.097   4.730
   40POPE  C218 3424   6.531   4.042   4.582
   40POPE  H18R 3425   6.550   3.963   4.658
   40POPE  H18S 3426   6.626   4.098   4.568
   40POPE  H18T 3427   6.505   3.993   4.486
   40POPE   C33 3428   6.228   4.607   5.625
   40POPE   H3X 3429   6.276   4.696   5.674
   40POPE   H3Y 3430   6.118   4.617   5.638
   40POPE   C34 3431   6.267   4.612   5.476
   40POPE   H4X 3432   6.181   4.572   5.418
   40POPE   H4Y 3433   6.353   4.546   5.456
   40POPE   C35 3434   6.302   4.757   5.434
   40POPE   H5X 3435   6.399   4.789   5.478
   40POPE   H5Y 3436   6.223   4.817   5.482
   40POPE   C36 3437   6.299   4.791   5.284
   40POPE   H6X 3438   6.386   4.747   5.232
   40POPE   H6Y 3439   6.306   4.902   5.273
   40POPE   C37 3440   6.169   4.745   5.219
   40POPE   H7X 3441   6.088   4.784   5.283
   40POPE   H7Y 3442   6.163   4.634   5.219
   40POPE   C38 3443   6.143   4.796   5.077
   40POPE   H8X 3444   6.118   4.904   5.079
   40POPE   H8Y 3445   6.054   4.741   5.038
   40POPE   C39 3446   6.257   4.770   4.979
   40POPE   H9X 3447   6.345   4.833   5.004
   40POPE   H9Y 3448   6.221   4.800   4.879
   40POPE  C310 3449   6.295   4.622   4.981
   40POPE  H10X 3450   6.205   4.559   4.997
   40POPE  H10Y 3451   6.362   4.603   5.068
   40POPE  C311 3452   6.366   4.575   4.854
   40POPE  H11X 3453   6.387   4.467   4.866
   40POPE  H11Y 3454   6.463   4.629   4.843
   40POPE  C312 3455   6.283   4.590   4.727
   40POPE  H12X 3456   6.344   4.545   4.645
   40POPE  H12Y 3457   6.270   4.698   4.703
   40POPE  C313 3458   6.147   4.520   4.738
   40POPE  H13X 3459   6.084   4.574   4.813
   40POPE  H13Y 3460   6.165   4.418   4.778
   40POPE  C314 3461   6.064   4.506   4.609
   40POPE  H14X 3462   5.993   4.592   4.601
   40POPE  H14Y 3463   6.004   4.413   4.618
   40POPE  C315 3464   6.145   4.498   4.480
   40POPE  H15X 3465   6.081   4.446   4.405
   40POPE  H15Y 3466   6.235   4.436   4.494
   40POPE  C316 3467   6.180   4.637   4.426
   40POPE  H16X 3468   6.091   4.680   4.375
   40POPE  H16Y 3469   6.265   4.633   4.356
   40POPE  H16Z 3470   6.207   4.707   4.508
   41POPE     N 3471   4.501   1.113   6.388
   41POPE   HN1 3472   4.451   1.021   6.385
   41POPE   HN2 3473   4.546   1.129   6.480
   41POPE   HN3 3474   4.434   1.190   6.367
   41POPE   C12 3475   4.602   1.108   6.279
   41POPE  H12A 3476   4.685   1.040   6.309
   41POPE  H12B 3477   4.639   1.211   6.265
   41POPE   C11 3478   4.536   1.060   6.150
   41POPE  H11A 3479   4.612   1.064   6.069
   41POPE  H11B 3480   4.456   1.131   6.120
   41POPE     P 3481   4.554   0.804   6.106
   41POPE   O13 3482   4.475   0.681   6.127
   41POPE   O14 3483   4.689   0.818   6.167
   41POPE   O11 3484   4.561   0.842   5.952
   41POPE   O12 3485   4.476   0.929   6.168
   41POPE    C1 3486   4.452   0.909   5.886
   41POPE    HA 3487   4.420   1.003   5.937
   41POPE    HB 3488   4.364   0.840   5.882
   41POPE    C2 3489   4.487   0.949   5.740
   41POPE    HS 3490   4.392   0.979   5.691
   41POPE   O21 3491   4.544   0.832   5.681
   41POPE   C21 3492   4.525   0.814   5.554
   41POPE   O22 3493   4.468   0.889   5.477
   41POPE   C22 3494   4.589   0.680   5.523
   41POPE   H2R 3495   4.544   0.603   5.588
   41POPE   H2S 3496   4.695   0.690   5.551
   41POPE    C3 3497   4.588   1.067   5.727
   41POPE    HX 3498   4.689   1.025   5.748
   41POPE    HY 3499   4.565   1.142   5.806
   41POPE   O31 3500   4.579   1.129   5.596
   41POPE   C31 3501   4.687   1.185   5.546
   41POPE   O32 3502   4.792   1.203   5.605
   41POPE   C32 3503   4.663   1.217   5.397
   41POPE   H2X 3504   4.554   1.222   5.377
   41POPE   H2Y 3505   4.704   1.130   5.341
   41POPE   C23 3506   4.573   0.643   5.375
   41POPE   H3R 3507   4.492   0.704   5.333
   41POPE   H3S 3508   4.544   0.536   5.362
   41POPE   C24 3509   4.697   0.666   5.292
   41POPE   H4R 3510   4.759   0.575   5.295
   41POPE   H4S 3511   4.754   0.754   5.329
   41POPE   C25 3512   4.664   0.691   5.147
   41POPE   H5R 3513   4.602   0.609   5.105
   41POPE   H5S 3514   4.760   0.693   5.091
   41POPE   C26 3515   4.592   0.825   5.130
   41POPE   H6R 3516   4.635   0.904   5.195
   41POPE   H6S 3517   4.484   0.817   5.151
   41POPE   C27 3518   4.615   0.860   4.986
   41POPE   H7R 3519   4.598   0.766   4.927
   41POPE   H7S 3520   4.722   0.887   4.980
   41POPE   C28 3521   4.524   0.967   4.928
   41POPE   H8R 3522   4.424   0.956   4.975
   41POPE   H8S 3523   4.514   0.936   4.822
   41POPE   C29 3524   4.570   1.108   4.937
   41POPE   H91 3525   4.583   1.148   5.039
   41POPE  C210 3526   4.607   1.183   4.832
   41POPE  H101 3527   4.623   1.291   4.846
   41POPE  C211 3528   4.608   1.142   4.688
   41POPE  H11R 3529   4.517   1.186   4.648
   41POPE  H11S 3530   4.598   1.033   4.673
   41POPE  C212 3531   4.730   1.185   4.603
   41POPE  H12R 3532   4.823   1.139   4.642
   41POPE  H12S 3533   4.741   1.296   4.608
   41POPE  C213 3534   4.707   1.141   4.457
   41POPE  H13R 3535   4.600   1.159   4.436
   41POPE  H13S 3536   4.722   1.032   4.447
   41POPE  C214 3537   4.786   1.219   4.351
   41POPE  H14R 3538   4.892   1.186   4.349
   41POPE  H14S 3539   4.786   1.327   4.377
   41POPE  C215 3540   4.724   1.205   4.210
   41POPE  H15R 3541   4.726   1.307   4.162
   41POPE  H15S 3542   4.620   1.171   4.211
   41POPE  C216 3543   4.801   1.110   4.119
   41POPE  H16R 3544   4.906   1.143   4.133
   41POPE  H16S 3545   4.772   1.126   4.013
   41POPE  C217 3546   4.790   0.961   4.150
   41POPE  H17R 3547   4.688   0.924   4.123
   41POPE  H17S 3548   4.804   0.942   4.258
   41POPE  C218 3549   4.895   0.884   4.071
   41POPE  H18R 3550   4.898   0.919   3.965
   41POPE  H18S 3551   4.878   0.776   4.066
   41POPE  H18T 3552   4.995   0.897   4.118
   41POPE   C33 3553   4.734   1.346   5.349
   41POPE   H3X 3554   4.837   1.351   5.390
   41POPE   H3Y 3555   4.678   1.433   5.388
   41POPE   C34 3556   4.745   1.361   5.196
   41POPE   H4X 3557   4.770   1.467   5.172
   41POPE   H4Y 3558   4.647   1.338   5.148
   41POPE   C35 3559   4.855   1.273   5.136
   41POPE   H5X 3560   4.822   1.167   5.145
   41POPE   H5Y 3561   4.949   1.285   5.194
   41POPE   C36 3562   4.885   1.309   4.989
   41POPE   H6X 3563   4.908   1.416   4.978
   41POPE   H6Y 3564   4.792   1.299   4.933
   41POPE   C37 3565   4.989   1.219   4.920
   41POPE   H7X 3566   5.093   1.248   4.946
   41POPE   H7Y 3567   4.977   1.230   4.810
   41POPE   C38 3568   4.967   1.072   4.957
   41POPE   H8X 3569   4.857   1.053   4.954
   41POPE   H8Y 3570   5.002   1.052   5.060
   41POPE   C39 3571   5.034   0.976   4.860
   41POPE   H9X 3572   5.133   0.946   4.902
   41POPE   H9Y 3573   5.053   1.024   4.762
   41POPE  C310 3574   4.950   0.850   4.837
   41POPE  H10X 3575   4.922   0.803   4.934
   41POPE  H10Y 3576   5.023   0.785   4.788
   41POPE  C311 3577   4.826   0.864   4.745
   41POPE  H11X 3578   4.848   0.922   4.654
   41POPE  H11Y 3579   4.751   0.928   4.792
   41POPE  C312 3580   4.767   0.727   4.705
   41POPE  H12X 3581   4.765   0.658   4.792
   41POPE  H12Y 3582   4.837   0.682   4.631
   41POPE  C313 3583   4.627   0.735   4.642
   41POPE  H13X 3584   4.613   0.839   4.607
   41POPE  H13Y 3585   4.549   0.713   4.718
   41POPE  C314 3586   4.614   0.641   4.521
   41POPE  H14X 3587   4.618   0.535   4.555
   41POPE  H14Y 3588   4.705   0.661   4.460
   41POPE  C315 3589   4.494   0.660   4.426
   41POPE  H15X 3590   4.523   0.602   4.335
   41POPE  H15Y 3591   4.481   0.766   4.394
   41POPE  C316 3592   4.361   0.596   4.463
   41POPE  H16X 3593   4.372   0.521   4.544
   41POPE  H16Y 3594   4.322   0.545   4.372
   41POPE  H16Z 3595   4.285   0.671   4.489
   42POPE     N 3596   0.615   4.592   6.073
   42POPE   HN1 3597   0.526   4.563   6.119
   42POPE   HN2 3598   0.642   4.686   6.109
   42POPE   HN3 3599   0.599   4.598   5.970
   42POPE   C12 3600   0.730   4.497   6.103
   42POPE  H12A 3601   0.798   4.496   6.016
   42POPE  H12B 3602   0.689   4.395   6.116
   42POPE   C11 3603   0.810   4.539   6.229
   42POPE  H11A 3604   0.740   4.557   6.313
   42POPE  H11B 3605   0.863   4.637   6.213
   42POPE     P 3606   1.055   4.440   6.232
   42POPE   O13 3607   1.107   4.302   6.237
   42POPE   O14 3608   1.119   4.542   6.318
   42POPE   O11 3609   1.036   4.485   6.082
   42POPE   O12 3610   0.900   4.435   6.267
   42POPE    C1 3611   1.141   4.500   5.991
   42POPE    HA 3612   1.133   4.426   5.909
   42POPE    HB 3613   1.242   4.487   6.039
   42POPE    C2 3614   1.134   4.642   5.933
   42POPE    HS 3615   1.138   4.714   6.018
   42POPE   O21 3616   1.018   4.658   5.847
   42POPE   C21 3617   0.916   4.722   5.901
   42POPE   O22 3618   0.909   4.765   6.014
   42POPE   C22 3619   0.800   4.735   5.802
   42POPE   H2R 3620   0.810   4.838   5.761
   42POPE   H2S 3621   0.705   4.731   5.858
   42POPE    C3 3622   1.261   4.660   5.850
   42POPE    HX 3623   1.347   4.637   5.916
   42POPE    HY 3624   1.265   4.769   5.824
   42POPE   O31 3625   1.258   4.569   5.736
   42POPE   C31 3626   1.343   4.609   5.643
   42POPE   O32 3627   1.407   4.713   5.648
   42POPE   C32 3628   1.349   4.509   5.527
   42POPE   H2X 3629   1.455   4.492   5.500
   42POPE   H2Y 3630   1.304   4.562   5.443
   42POPE   C23 3631   0.795   4.646   5.677
   42POPE   H3R 3632   0.892   4.655   5.622
   42POPE   H3S 3633   0.715   4.687   5.611
   42POPE   C24 3634   0.765   4.497   5.697
   42POPE   H4R 3635   0.666   4.478   5.743
   42POPE   H4S 3636   0.843   4.455   5.765
   42POPE   C25 3637   0.777   4.423   5.562
   42POPE   H5R 3638   0.768   4.314   5.585
   42POPE   H5S 3639   0.879   4.445   5.524
   42POPE   C26 3640   0.677   4.456   5.449
   42POPE   H6R 3641   0.577   4.469   5.495
   42POPE   H6S 3642   0.668   4.368   5.382
   42POPE   C27 3643   0.712   4.575   5.357
   42POPE   H7R 3644   0.780   4.543   5.276
   42POPE   H7S 3645   0.769   4.651   5.415
   42POPE   C28 3646   0.586   4.646   5.304
   42POPE   H8R 3647   0.612   4.749   5.277
   42POPE   H8S 3648   0.521   4.659   5.394
   42POPE   C29 3649   0.499   4.596   5.192
   42POPE   H91 3650   0.397   4.595   5.228
   42POPE  C210 3651   0.511   4.579   5.059
   42POPE  H101 3652   0.418   4.549   5.007
   42POPE  C211 3653   0.623   4.608   4.963
   42POPE  H11R 3654   0.645   4.717   4.968
   42POPE  H11S 3655   0.585   4.590   4.860
   42POPE  C212 3656   0.758   4.535   4.972
   42POPE  H12R 3657   0.746   4.428   4.943
   42POPE  H12S 3658   0.797   4.538   5.076
   42POPE  C213 3659   0.859   4.606   4.881
   42POPE  H13R 3660   0.858   4.713   4.909
   42POPE  H13S 3661   0.822   4.610   4.778
   42POPE  C214 3662   1.001   4.548   4.886
   42POPE  H14R 3663   0.996   4.436   4.889
   42POPE  H14S 3664   1.048   4.579   4.981
   42POPE  C215 3665   1.088   4.589   4.766
   42POPE  H15R 3666   1.085   4.699   4.755
   42POPE  H15S 3667   1.045   4.548   4.673
   42POPE  C216 3668   1.236   4.544   4.772
   42POPE  H16R 3669   1.262   4.522   4.878
   42POPE  H16S 3670   1.300   4.629   4.739
   42POPE  C217 3671   1.269   4.422   4.684
   42POPE  H17R 3672   1.195   4.342   4.706
   42POPE  H17S 3673   1.369   4.384   4.713
   42POPE  C218 3674   1.270   4.451   4.533
   42POPE  H18R 3675   1.293   4.359   4.476
   42POPE  H18S 3676   1.347   4.527   4.508
   42POPE  H18T 3677   1.172   4.489   4.499
   42POPE   C33 3678   1.272   4.375   5.532
   42POPE   H3X 3679   1.175   4.386   5.584
   42POPE   H3Y 3680   1.332   4.300   5.588
   42POPE   C34 3681   1.250   4.327   5.388
   42POPE   H4X 3682   1.271   4.218   5.381
   42POPE   H4Y 3683   1.323   4.376   5.321
   42POPE   C35 3684   1.107   4.352   5.336
   42POPE   H5X 3685   1.104   4.330   5.227
   42POPE   H5Y 3686   1.077   4.458   5.351
   42POPE   C36 3687   1.011   4.256   5.407
   42POPE   H6X 3688   0.991   4.287   5.511
   42POPE   H6Y 3689   1.068   4.164   5.416
   42POPE   C37 3690   0.885   4.218   5.330
   42POPE   H7X 3691   0.851   4.306   5.271
   42POPE   H7Y 3692   0.804   4.189   5.400
   42POPE   C38 3693   0.911   4.099   5.238
   42POPE   H8X 3694   0.903   4.006   5.299
   42POPE   H8Y 3695   1.014   4.107   5.197
   42POPE   C39 3696   0.811   4.090   5.126
   42POPE   H9X 3697   0.783   4.194   5.097
   42POPE   H9Y 3698   0.719   4.040   5.163
   42POPE  C310 3699   0.861   4.021   4.998
   42POPE  H10X 3700   0.901   3.919   5.018
   42POPE  H10Y 3701   0.942   4.082   4.954
   42POPE  C311 3702   0.740   4.013   4.905
   42POPE  H11X 3703   0.677   4.096   4.940
   42POPE  H11Y 3704   0.683   3.919   4.926
   42POPE  C312 3705   0.760   4.030   4.753
   42POPE  H12X 3706   0.661   4.023   4.703
   42POPE  H12Y 3707   0.819   3.942   4.722
   42POPE  C313 3708   0.830   4.158   4.703
   42POPE  H13X 3709   0.886   4.133   4.611
   42POPE  H13Y 3710   0.903   4.195   4.778
   42POPE  C314 3711   0.734   4.270   4.661
   42POPE  H14X 3712   0.670   4.289   4.749
   42POPE  H14Y 3713   0.669   4.240   4.576
   42POPE  C315 3714   0.798   4.407   4.641
   42POPE  H15X 3715   0.877   4.412   4.718
   42POPE  H15Y 3716   0.718   4.482   4.662
   42POPE  C316 3717   0.860   4.446   4.509
   42POPE  H16X 3718   0.905   4.547   4.514
   42POPE  H16Y 3719   0.781   4.450   4.432
   42POPE  H16Z 3720   0.940   4.374   4.480
   43POPE     N 3721   5.708   1.406   6.172
   43POPE   HN1 3722   5.648   1.377   6.253
   43POPE   HN2 3723   5.734   1.506   6.188
   43POPE   HN3 3724   5.658   1.399   6.082
   43POPE   C12 3725   5.834   1.328   6.174
   43POPE  H12A 3726   5.811   1.223   6.145
   43POPE  H12B 3727   5.876   1.330   6.276
   43POPE   C11 3728   5.926   1.397   6.074
   43POPE  H11A 3729   5.868   1.409   5.980
   43POPE  H11B 3730   6.015   1.333   6.053
   43POPE     P 3731   6.091   1.552   6.201
   43POPE   O13 3732   6.109   1.435   6.291
   43POPE   O14 3733   6.079   1.685   6.263
   43POPE   O11 3734   6.203   1.549   6.089
   43POPE   O12 3735   5.958   1.529   6.114
   43POPE    C1 3736   6.185   1.604   5.958
   43POPE    HA 3737   6.256   1.688   5.948
   43POPE    HB 3738   6.083   1.645   5.940
   43POPE    C2 3739   6.219   1.501   5.845
   43POPE    HS 3740   6.232   1.558   5.750
   43POPE   O21 3741   6.113   1.406   5.830
   43POPE   C21 3742   6.003   1.439   5.764
   43POPE   O22 3743   5.974   1.547   5.717
   43POPE   C22 3744   5.921   1.308   5.748
   43POPE   H2R 3745   5.869   1.283   5.841
   43POPE   H2S 3746   5.994   1.227   5.735
   43POPE    C3 3747   6.356   1.428   5.876
   43POPE    HX 3748   6.336   1.368   5.968
   43POPE    HY 3749   6.430   1.505   5.905
   43POPE   O31 3750   6.411   1.339   5.773
   43POPE   C31 3751   6.467   1.399   5.667
   43POPE   O32 3752   6.471   1.519   5.655
   43POPE   C32 3753   6.520   1.298   5.558
   43POPE   H2X 3754   6.453   1.215   5.536
   43POPE   H2Y 3755   6.606   1.242   5.597
   43POPE   C23 3756   5.819   1.288   5.634
   43POPE   H3R 3757   5.853   1.319   5.534
   43POPE   H3S 3758   5.729   1.349   5.658
   43POPE   C24 3759   5.783   1.137   5.636
   43POPE   H4R 3760   5.678   1.110   5.615
   43POPE   H4S 3761   5.786   1.120   5.744
   43POPE   C25 3762   5.879   1.036   5.569
   43POPE   H5R 3763   5.859   0.933   5.607
   43POPE   H5S 3764   5.980   1.066   5.599
   43POPE   C26 3765   5.882   1.039   5.416
   43POPE   H6R 3766   5.882   1.143   5.388
   43POPE   H6S 3767   5.781   1.003   5.384
   43POPE   C27 3768   5.989   0.957   5.335
   43POPE   H7R 3769   5.953   0.952   5.230
   43POPE   H7S 3770   5.976   0.858   5.384
   43POPE   C28 3771   6.148   0.953   5.334
   43POPE   H8R 3772   6.159   0.863   5.270
   43POPE   H8S 3773   6.172   0.923   5.438
   43POPE   C29 3774   6.266   1.036   5.285
   43POPE   H91 3775   6.290   1.121   5.348
   43POPE  C210 3776   6.357   1.014   5.188
   43POPE  H101 3777   6.448   1.077   5.190
   43POPE  C211 3778   6.369   0.895   5.096
   43POPE  H11R 3779   6.272   0.841   5.090
   43POPE  H11S 3780   6.442   0.824   5.141
   43POPE  C212 3781   6.418   0.920   4.952
   43POPE  H12R 3782   6.332   0.941   4.884
   43POPE  H12S 3783   6.466   0.825   4.921
   43POPE  C213 3784   6.525   1.028   4.935
   43POPE  H13R 3785   6.595   1.015   5.020
   43POPE  H13S 3786   6.480   1.128   4.947
   43POPE  C214 3787   6.607   1.019   4.805
   43POPE  H14R 3788   6.657   0.920   4.795
   43POPE  H14S 3789   6.685   1.096   4.817
   43POPE  C215 3790   6.543   1.059   4.671
   43POPE  H15R 3791   6.443   1.102   4.693
   43POPE  H15S 3792   6.532   0.972   4.603
   43POPE  C216 3793   6.628   1.168   4.605
   43POPE  H16R 3794   6.736   1.143   4.616
   43POPE  H16S 3795   6.608   1.258   4.664
   43POPE  C217 3796   6.605   1.196   4.457
   43POPE  H17R 3797   6.604   1.306   4.441
   43POPE  H17S 3798   6.512   1.155   4.415
   43POPE  C218 3799   6.713   1.135   4.370
   43POPE  H18R 3800   6.813   1.145   4.417
   43POPE  H18S 3801   6.713   1.188   4.272
   43POPE  H18T 3802   6.691   1.028   4.353
   43POPE   C33 3803   6.556   1.362   5.420
   43POPE   H3X 3804   6.554   1.282   5.343
   43POPE   H3Y 3805   6.660   1.403   5.420
   43POPE   C34 3806   6.462   1.475   5.380
   43POPE   H4X 3807   6.492   1.568   5.434
   43POPE   H4Y 3808   6.360   1.455   5.415
   43POPE   C35 3809   6.462   1.515   5.233
   43POPE   H5X 3810   6.556   1.572   5.216
   43POPE   H5Y 3811   6.374   1.583   5.220
   43POPE   C36 3812   6.453   1.406   5.126
   43POPE   H6X 3813   6.378   1.332   5.156
   43POPE   H6Y 3814   6.550   1.353   5.119
   43POPE   C37 3815   6.419   1.471   4.991
   43POPE   H7X 3816   6.508   1.528   4.957
   43POPE   H7Y 3817   6.336   1.544   5.007
   43POPE   C38 3818   6.373   1.384   4.873
   43POPE   H8X 3819   6.276   1.337   4.898
   43POPE   H8Y 3820   6.446   1.304   4.850
   43POPE   C39 3821   6.359   1.477   4.751
   43POPE   H9X 3822   6.460   1.521   4.736
   43POPE   H9Y 3823   6.288   1.559   4.776
   43POPE  C310 3824   6.316   1.417   4.618
   43POPE  H10X 3825   6.211   1.381   4.626
   43POPE  H10Y 3826   6.382   1.331   4.596
   43POPE  C311 3827   6.324   1.520   4.505
   43POPE  H11X 3828   6.430   1.549   4.490
   43POPE  H11Y 3829   6.268   1.608   4.539
   43POPE  C312 3830   6.266   1.478   4.369
   43POPE  H12X 3831   6.245   1.567   4.306
   43POPE  H12Y 3832   6.170   1.425   4.386
   43POPE  C313 3833   6.369   1.390   4.300
   43POPE  H13X 3834   6.410   1.328   4.381
   43POPE  H13Y 3835   6.453   1.451   4.260
   43POPE  C314 3836   6.316   1.292   4.196
   43POPE  H14X 3837   6.221   1.248   4.233
   43POPE  H14Y 3838   6.387   1.208   4.186
   43POPE  C315 3839   6.288   1.354   4.059
   43POPE  H15X 3840   6.219   1.441   4.074
   43POPE  H15Y 3841   6.236   1.277   4.000
   43POPE  C316 3842   6.409   1.403   3.979
   43POPE  H16X 3843   6.491   1.329   3.979
   43POPE  H16Y 3844   6.447   1.497   4.022
   43POPE  H16Z 3845   6.378   1.423   3.875
   44POPE     N 3846   3.904   6.948   6.416
   44POPE   HN1 3847   3.843   7.017   6.365
   44POPE   HN2 3848   3.844   6.868   6.445
   44POPE   HN3 3849   3.943   6.997   6.499
   44POPE   C12 3850   4.010   6.906   6.319
   44POPE  H12A 3851   3.959   6.856   6.233
   44POPE  H12B 3852   4.076   6.832   6.368
   44POPE   C11 3853   4.089   7.029   6.271
   44POPE  H11A 3854   4.162   6.997   6.192
   44POPE  H11B 3855   4.150   7.070   6.354
   44POPE     P 3856   3.927   7.105   6.087
   44POPE   O13 3857   3.806   7.031   6.126
   44POPE   O14 3858   4.025   7.037   6.001
   44POPE   O11 3859   3.887   7.247   6.033
   44POPE   O12 3860   4.002   7.134   6.225
   44POPE    C1 3861   3.934   7.299   5.909
   44POPE    HA 3862   4.033   7.257   5.878
   44POPE    HB 3863   3.949   7.409   5.921
   44POPE    C2 3864   3.832   7.278   5.793
   44POPE    HS 3865   3.733   7.313   5.831
   44POPE   O21 3866   3.829   7.138   5.758
   44POPE   C21 3867   3.719   7.096   5.700
   44POPE   O22 3868   3.620   7.166   5.679
   44POPE   C22 3869   3.733   6.948   5.664
   44POPE   H2R 3870   3.682   6.892   5.745
   44POPE   H2S 3871   3.841   6.921   5.665
   44POPE    C3 3872   3.872   7.365   5.671
   44POPE    HX 3873   3.866   7.471   5.704
   44POPE    HY 3874   3.798   7.353   5.588
   44POPE   O31 3875   4.008   7.339   5.630
   44POPE   C31 3876   4.025   7.255   5.528
   44POPE   O32 3877   3.939   7.192   5.471
   44POPE   C32 3878   4.170   7.265   5.483
   44POPE   H2X 3879   4.204   7.162   5.460
   44POPE   H2Y 3880   4.233   7.308   5.563
   44POPE   C23 3881   3.671   6.907   5.528
   44POPE   H3R 3882   3.572   6.955   5.517
   44POPE   H3S 3883   3.655   6.797   5.526
   44POPE   C24 3884   3.756   6.946   5.405
   44POPE   H4R 3885   3.857   6.900   5.410
   44POPE   H4S 3886   3.766   7.056   5.407
   44POPE   C25 3887   3.687   6.911   5.273
   44POPE   H5R 3888   3.580   6.937   5.286
   44POPE   H5S 3889   3.692   6.803   5.251
   44POPE   C26 3890   3.739   6.994   5.154
   44POPE   H6R 3891   3.758   7.099   5.187
   44POPE   H6S 3892   3.660   6.998   5.076
   44POPE   C27 3893   3.864   6.936   5.086
   44POPE   H7R 3894   3.851   6.826   5.075
   44POPE   H7S 3895   3.952   6.953   5.151
   44POPE   C28 3896   3.888   6.996   4.946
   44POPE   H8R 3897   3.805   6.964   4.878
   44POPE   H8S 3898   3.982   6.952   4.904
   44POPE   C29 3899   3.894   7.147   4.950
   44POPE   H91 3900   3.796   7.198   4.951
   44POPE  C210 3901   4.005   7.221   4.958
   44POPE  H101 3902   3.996   7.331   4.962
   44POPE  C211 3903   4.146   7.168   4.963
   44POPE  H11R 3904   4.161   7.086   4.889
   44POPE  H11S 3905   4.166   7.124   5.063
   44POPE  C212 3906   4.248   7.280   4.937
   44POPE  H12R 3907   4.349   7.239   4.957
   44POPE  H12S 3908   4.232   7.363   5.010
   44POPE  C213 3909   4.247   7.338   4.795
   44POPE  H13R 3910   4.327   7.416   4.788
   44POPE  H13S 3911   4.150   7.388   4.775
   44POPE  C214 3912   4.273   7.235   4.684
   44POPE  H14R 3913   4.265   7.287   4.585
   44POPE  H14S 3914   4.196   7.155   4.687
   44POPE  C215 3915   4.412   7.174   4.690
   44POPE  H15R 3916   4.436   7.144   4.793
   44POPE  H15S 3917   4.483   7.254   4.660
   44POPE  C216 3918   4.428   7.049   4.603
   44POPE  H16R 3919   4.391   7.069   4.500
   44POPE  H16S 3920   4.364   6.968   4.646
   44POPE  C217 3921   4.574   7.004   4.596
   44POPE  H17R 3922   4.582   6.915   4.530
   44POPE  H17S 3923   4.607   6.971   4.697
   44POPE  C218 3924   4.667   7.114   4.546
   44POPE  H18R 3925   4.764   7.073   4.514
   44POPE  H18S 3926   4.685   7.188   4.628
   44POPE  H18T 3927   4.621   7.167   4.460
   44POPE   C33 3928   4.172   7.352   5.356
   44POPE   H3X 3929   4.107   7.305   5.278
   44POPE   H3Y 3930   4.276   7.354   5.314
   44POPE   C34 3931   4.125   7.496   5.383
   44POPE   H4X 3932   4.209   7.550   5.433
   44POPE   H4Y 3933   4.038   7.501   5.451
   44POPE   C35 3934   4.086   7.571   5.255
   44POPE   H5X 3935   4.164   7.548   5.178
   44POPE   H5Y 3936   4.090   7.680   5.277
   44POPE   C36 3937   3.947   7.541   5.196
   44POPE   H6X 3938   3.868   7.565   5.269
   44POPE   H6Y 3939   3.939   7.433   5.170
   44POPE   C37 3940   3.930   7.626   5.069
   44POPE   H7X 3941   4.010   7.592   5.000
   44POPE   H7Y 3942   3.950   7.733   5.095
   44POPE   C38 3943   3.795   7.623   4.995
   44POPE   H8X 3944   3.720   7.679   5.054
   44POPE   H8Y 3945   3.761   7.518   4.985
   44POPE   C39 3946   3.804   7.685   4.853
   44POPE   H9X 3947   3.842   7.790   4.859
   44POPE   H9Y 3948   3.702   7.688   4.808
   44POPE  C310 3949   3.896   7.602   4.761
   44POPE  H10X 3950   3.862   7.497   4.770
   44POPE  H10Y 3951   4.001   7.607   4.799
   44POPE  C311 3952   3.903   7.640   4.612
   44POPE  H11X 3953   3.944   7.742   4.600
   44POPE  H11Y 3954   3.801   7.639   4.567
   44POPE  C312 3955   3.991   7.540   4.535
   44POPE  H12X 3956   4.089   7.530   4.587
   44POPE  H12Y 3957   4.011   7.578   4.433
   44POPE  C313 3958   3.926   7.401   4.525
   44POPE  H13X 3959   3.828   7.412   4.475
   44POPE  H13Y 3960   3.908   7.358   4.626
   44POPE  C314 3961   4.011   7.299   4.447
   44POPE  H14X 3962   4.077   7.247   4.519
   44POPE  H14Y 3963   4.074   7.354   4.375
   44POPE  C315 3964   3.929   7.192   4.375
   44POPE  H15X 3965   3.999   7.127   4.317
   44POPE  H15Y 3966   3.861   7.242   4.301
   44POPE  C316 3967   3.845   7.104   4.469
   44POPE  H16X 3968   3.794   7.024   4.411
   44POPE  H16Y 3969   3.768   7.165   4.520
   44POPE  H16Z 3970   3.909   7.057   4.546
   45POPE     N 3971   0.920   3.180   6.392
   45POPE   HN1 3972   0.945   3.253   6.321
   45POPE   HN2 3973   0.861   3.227   6.465
   45POPE   HN3 3974   1.006   3.147   6.440
   45POPE   C12 3975   0.845   3.069   6.325
   45POPE  H12A 3976   0.831   2.988   6.398
   45POPE  H12B 3977   0.905   3.032   6.239
   45POPE   C11 3978   0.708   3.119   6.275
   45POPE  H11A 3979   0.662   3.185   6.352
   45POPE  H11B 3980   0.643   3.028   6.265
   45POPE     P 3981   0.586   3.202   6.067
   45POPE   O13 3982   0.599   3.298   5.956
   45POPE   O14 3983   0.478   3.220   6.167
   45POPE   O11 3984   0.575   3.056   6.008
   45POPE   O12 3985   0.722   3.191   6.151
   45POPE    C1 3986   0.684   2.967   5.985
   45POPE    HA 3987   0.674   2.881   6.055
   45POPE    HB 3988   0.783   3.013   6.003
   45POPE    C2 3989   0.679   2.909   5.841
   45POPE    HS 3990   0.760   2.834   5.831
   45POPE   O21 3991   0.693   3.010   5.741
   45POPE   C21 3992   0.792   3.094   5.744
   45POPE   O22 3993   0.902   3.075   5.794
   45POPE   C22 3994   0.748   3.223   5.674
   45POPE   H2R 3995   0.751   3.301   5.754
   45POPE   H2S 3996   0.642   3.214   5.643
   45POPE    C3 3997   0.544   2.835   5.816
   45POPE    HX 3998   0.460   2.900   5.851
   45POPE    HY 3999   0.539   2.744   5.879
   45POPE   O31 4000   0.529   2.797   5.677
   45POPE   C31 4001   0.483   2.895   5.599
   45POPE   O32 4002   0.454   3.008   5.632
   45POPE   C32 4003   0.462   2.842   5.459
   45POPE   H2X 4004   0.358   2.808   5.459
   45POPE   H2Y 4005   0.532   2.759   5.437
   45POPE   C23 4006   0.842   3.266   5.559
   45POPE   H3R 4007   0.946   3.246   5.592
   45POPE   H3S 4008   0.832   3.376   5.550
   45POPE   C24 4009   0.816   3.207   5.418
   45POPE   H4R 4010   0.862   3.107   5.409
   45POPE   H4S 4011   0.864   3.271   5.342
   45POPE   C25 4012   0.670   3.199   5.378
   45POPE   H5R 4013   0.619   3.289   5.419
   45POPE   H5S 4014   0.628   3.115   5.436
   45POPE   C26 4015   0.639   3.197   5.226
   45POPE   H6R 4016   0.672   3.296   5.188
   45POPE   H6S 4017   0.528   3.191   5.214
   45POPE   C27 4018   0.702   3.096   5.128
   45POPE   H7R 4019   0.686   2.992   5.163
   45POPE   H7S 4020   0.812   3.110   5.125
   45POPE   C28 4021   0.644   3.105   4.983
   45POPE   H8R 4022   0.538   3.073   4.985
   45POPE   H8S 4023   0.699   3.025   4.929
   45POPE   C29 4024   0.657   3.234   4.902
   45POPE   H91 4025   0.761   3.266   4.893
   45POPE  C210 4026   0.565   3.306   4.832
   45POPE  H101 4027   0.599   3.396   4.778
   45POPE  C211 4028   0.418   3.278   4.815
   45POPE  H11R 4029   0.370   3.264   4.915
   45POPE  H11S 4030   0.409   3.183   4.761
   45POPE  C212 4031   0.327   3.376   4.734
   45POPE  H12R 4032   0.363   3.481   4.743
   45POPE  H12S 4033   0.225   3.371   4.779
   45POPE  C213 4034   0.316   3.336   4.586
   45POPE  H13R 4035   0.324   3.226   4.576
   45POPE  H13S 4036   0.405   3.379   4.535
   45POPE  C214 4037   0.188   3.374   4.507
   45POPE  H14R 4038   0.163   3.481   4.520
   45POPE  H14S 4039   0.101   3.314   4.542
   45POPE  C215 4040   0.212   3.348   4.357
   45POPE  H15R 4041   0.196   3.241   4.332
   45POPE  H15S 4042   0.318   3.368   4.345
   45POPE  C216 4043   0.145   3.444   4.257
   45POPE  H16R 4044   0.175   3.548   4.283
   45POPE  H16S 4045   0.036   3.437   4.271
   45POPE  C217 4046   0.180   3.422   4.108
   45POPE  H17R 4047   0.285   3.453   4.091
   45POPE  H17S 4048   0.115   3.489   4.048
   45POPE  C218 4049   0.167   3.280   4.052
   45POPE  H18R 4050   0.066   3.238   4.067
   45POPE  H18S 4051   0.240   3.212   4.100
   45POPE  H18T 4052   0.187   3.280   3.943
   45POPE   C33 4053   0.471   2.949   5.351
   45POPE   H3X 4054   0.579   2.958   5.328
   45POPE   H3Y 4055   0.431   3.047   5.387
   45POPE   C34 4056   0.398   2.919   5.221
   45POPE   H4X 4057   0.437   2.829   5.171
   45POPE   H4Y 4058   0.427   3.004   5.156
   45POPE   C35 4059   0.245   2.915   5.234
   45POPE   H5X 4060   0.213   2.927   5.340
   45POPE   H5Y 4061   0.209   2.816   5.199
   45POPE   C36 4062   0.176   3.021   5.148
   45POPE   H6X 4063   0.208   3.122   5.182
   45POPE   H6Y 4064   0.066   3.010   5.158
   45POPE   C37 4065   0.221   3.003   5.004
   45POPE   H7X 4066   0.224   2.893   4.990
   45POPE   H7Y 4067   0.324   3.044   4.995
   45POPE   C38 4068   0.142   3.065   4.890
   45POPE   H8X 4069   0.153   3.175   4.896
   45POPE   H8Y 4070   0.034   3.040   4.899
   45POPE   C39 4071   0.195   3.013   4.754
   45POPE   H9X 4072   0.206   3.100   4.686
   45POPE   H9Y 4073   0.117   2.948   4.711
   45POPE  C310 4074   0.328   2.933   4.761
   45POPE  H10X 4075   0.317   2.842   4.823
   45POPE  H10Y 4076   0.407   2.994   4.809
   45POPE  C311 4077   0.383   2.885   4.626
   45POPE  H11X 4078   0.377   2.964   4.548
   45POPE  H11Y 4079   0.321   2.799   4.595
   45POPE  C312 4080   0.526   2.832   4.636
   45POPE  H12X 4081   0.550   2.780   4.541
   45POPE  H12Y 4082   0.530   2.756   4.717
   45POPE  C313 4083   0.634   2.938   4.663
   45POPE  H13X 4084   0.729   2.885   4.686
   45POPE  H13Y 4085   0.608   2.997   4.752
   45POPE  C314 4086   0.661   3.036   4.547
   45POPE  H14X 4087   0.601   3.128   4.562
   45POPE  H14Y 4088   0.628   2.989   4.452
   45POPE  C315 4089   0.811   3.070   4.537
   45POPE  H15X 4090   0.867   2.976   4.553
   45POPE  H15Y 4091   0.838   3.139   4.620
   45POPE  C316 4092   0.856   3.129   4.403
   45POPE  H16X 4093   0.889   3.234   4.413
   45POPE  H16Y 4094   0.773   3.126   4.329
   45POPE  H16Z 4095   0.938   3.068   4.359
   46POPE     N 4096   1.369   1.741   6.450
   46POPE   HN1 4097   1.391   1.804   6.530
   46POPE   HN2 4098   1.385   1.641   6.476
   46POPE   HN3 4099   1.429   1.761   6.367
   46POPE   C12 4100   1.226   1.759   6.405
   46POPE  H12A 4101   1.212   1.866   6.380
   46POPE  H12B 4102   1.158   1.730   6.487
   46POPE   C11 4103   1.209   1.673   6.282
   46POPE  H11A 4104   1.107   1.684   6.238
   46POPE  H11B 4105   1.224   1.565   6.307
   46POPE     P 4106   1.335   1.653   6.052
   46POPE   O13 4107   1.302   1.509   6.063
   46POPE   O14 4108   1.469   1.698   6.009
   46POPE   O11 4109   1.225   1.731   5.969
   46POPE   O12 4110   1.310   1.718   6.193
   46POPE    C1 4111   1.164   1.853   6.015
   46POPE    HA 4112   1.230   1.912   6.082
   46POPE    HB 4113   1.074   1.825   6.073
   46POPE    C2 4114   1.114   1.949   5.901
   46POPE    HS 4115   1.032   2.012   5.943
   46POPE   O21 4116   1.066   1.875   5.788
   46POPE   C21 4117   0.975   1.786   5.817
   46POPE   O22 4118   0.897   1.789   5.912
   46POPE   C22 4119   0.968   1.681   5.708
   46POPE   H2R 4120   0.892   1.720   5.640
   46POPE   H2S 4121   0.931   1.586   5.752
   46POPE    C3 4122   1.224   2.050   5.853
   46POPE    HX 4123   1.266   2.097   5.945
   46POPE    HY 4124   1.176   2.133   5.796
   46POPE   O31 4125   1.331   1.986   5.781
   46POPE   C31 4126   1.321   1.985   5.648
   46POPE   O32 4127   1.257   2.064   5.580
   46POPE   C32 4128   1.400   1.865   5.593
   46POPE   H2X 4129   1.330   1.791   5.550
   46POPE   H2Y 4130   1.453   1.817   5.678
   46POPE   C23 4131   1.101   1.653   5.634
   46POPE   H3R 4132   1.173   1.602   5.703
   46POPE   H3S 4133   1.144   1.750   5.604
   46POPE   C24 4134   1.083   1.570   5.507
   46POPE   H4R 4135   1.046   1.470   5.539
   46POPE   H4S 4136   1.181   1.554   5.457
   46POPE   C25 4137   0.984   1.634   5.408
   46POPE   H5R 4138   0.892   1.661   5.460
   46POPE   H5S 4139   0.953   1.560   5.331
   46POPE   C26 4140   1.036   1.757   5.333
   46POPE   H6R 4141   1.089   1.826   5.403
   46POPE   H6S 4142   0.953   1.813   5.286
   46POPE   C27 4143   1.125   1.712   5.219
   46POPE   H7R 4144   1.074   1.635   5.159
   46POPE   H7S 4145   1.210   1.661   5.267
   46POPE   C28 4146   1.170   1.827   5.126
   46POPE   H8R 4147   1.255   1.782   5.071
   46POPE   H8S 4148   1.211   1.909   5.188
   46POPE   C29 4149   1.070   1.888   5.032
   46POPE   H91 4150   0.976   1.924   5.077
   46POPE  C210 4151   1.087   1.899   4.899
   46POPE  H101 4152   1.005   1.938   4.838
   46POPE  C211 4153   1.207   1.853   4.819
   46POPE  H11R 4154   1.282   1.797   4.879
   46POPE  H11S 4155   1.261   1.938   4.772
   46POPE  C212 4156   1.151   1.759   4.713
   46POPE  H12R 4157   1.127   1.817   4.621
   46POPE  H12S 4158   1.056   1.711   4.743
   46POPE  C213 4159   1.242   1.642   4.682
   46POPE  H13R 4160   1.284   1.597   4.775
   46POPE  H13S 4161   1.326   1.683   4.623
   46POPE  C214 4162   1.165   1.533   4.607
   46POPE  H14R 4163   1.073   1.507   4.663
   46POPE  H14S 4164   1.226   1.440   4.598
   46POPE  C215 4165   1.127   1.582   4.467
   46POPE  H15R 4166   1.075   1.680   4.471
   46POPE  H15S 4167   1.056   1.511   4.421
   46POPE  C216 4168   1.253   1.595   4.382
   46POPE  H16R 4169   1.316   1.505   4.402
   46POPE  H16S 4170   1.315   1.682   4.413
   46POPE  C217 4171   1.223   1.597   4.233
   46POPE  H17R 4172   1.208   1.490   4.214
   46POPE  H17S 4173   1.313   1.626   4.175
   46POPE  C218 4174   1.098   1.672   4.185
   46POPE  H18R 4175   1.071   1.642   4.082
   46POPE  H18S 4176   1.111   1.781   4.184
   46POPE  H18T 4177   1.012   1.650   4.251
   46POPE   C33 4178   1.500   1.907   5.484
   46POPE   H3X 4179   1.584   1.835   5.476
   46POPE   H3Y 4180   1.538   2.007   5.513
   46POPE   C34 4181   1.436   1.932   5.348
   46POPE   H4X 4182   1.472   2.030   5.309
   46POPE   H4Y 4183   1.326   1.946   5.363
   46POPE   C35 4184   1.452   1.826   5.239
   46POPE   H5X 4185   1.424   1.881   5.146
   46POPE   H5Y 4186   1.379   1.745   5.257
   46POPE   C36 4187   1.579   1.749   5.206
   46POPE   H6X 4188   1.586   1.658   5.269
   46POPE   H6Y 4189   1.670   1.808   5.225
   46POPE   C37 4190   1.563   1.710   5.058
   46POPE   H7X 4191   1.533   1.797   4.996
   46POPE   H7Y 4192   1.480   1.635   5.053
   46POPE   C38 4193   1.686   1.650   4.994
   46POPE   H8X 4194   1.733   1.592   5.075
   46POPE   H8Y 4195   1.758   1.728   4.961
   46POPE   C39 4196   1.650   1.555   4.878
   46POPE   H9X 4197   1.583   1.475   4.916
   46POPE   H9Y 4198   1.745   1.509   4.849
   46POPE  C310 4199   1.591   1.617   4.750
   46POPE  H10X 4200   1.667   1.678   4.697
   46POPE  H10Y 4201   1.508   1.685   4.781
   46POPE  C311 4202   1.532   1.510   4.655
   46POPE  H11X 4203   1.467   1.557   4.580
   46POPE  H11Y 4204   1.469   1.441   4.716
   46POPE  C312 4205   1.633   1.429   4.573
   46POPE  H12X 4206   1.598   1.323   4.565
   46POPE  H12Y 4207   1.731   1.428   4.624
   46POPE  C313 4208   1.650   1.486   4.431
   46POPE  H13X 4209   1.759   1.495   4.412
   46POPE  H13Y 4210   1.608   1.588   4.424
   46POPE  C314 4211   1.590   1.399   4.319
   46POPE  H14X 4212   1.479   1.405   4.318
   46POPE  H14Y 4213   1.615   1.294   4.340
   46POPE  C315 4214   1.647   1.445   4.184
   46POPE  H15X 4215   1.755   1.465   4.201
   46POPE  H15Y 4216   1.597   1.541   4.160
   46POPE  C316 4217   1.639   1.354   4.061
   46POPE  H16X 4218   1.581   1.262   4.082
   46POPE  H16Y 4219   1.741   1.324   4.027
   46POPE  H16Z 4220   1.591   1.408   3.977
   47POPE     N 4221   5.173   0.936   6.120
   47POPE   HN1 4222   5.191   0.872   6.041
   47POPE   HN2 4223   5.100   1.006   6.098
   47POPE   HN3 4224   5.267   0.982   6.135
   47POPE   C12 4225   5.144   0.848   6.238
   47POPE  H12A 4226   5.074   0.769   6.203
   47POPE  H12B 4227   5.096   0.908   6.318
   47POPE   C11 4228   5.275   0.784   6.289
   47POPE  H11A 4229   5.249   0.694   6.349
   47POPE  H11B 4230   5.326   0.856   6.358
   47POPE     P 4231   5.487   0.828   6.134
   47POPE   O13 4232   5.598   0.792   6.228
   47POPE   O14 4233   5.440   0.969   6.130
   47POPE   O11 4234   5.504   0.772   5.985
   47POPE   O12 4235   5.359   0.745   6.180
   47POPE    C1 4236   5.392   0.778   5.893
   47POPE    HA 4237   5.376   0.883   5.860
   47POPE    HB 4238   5.300   0.740   5.942
   47POPE    C2 4239   5.401   0.692   5.759
   47POPE    HS 4240   5.421   0.586   5.789
   47POPE   O21 4241   5.506   0.738   5.671
   47POPE   C21 4242   5.524   0.668   5.558
   47POPE   O22 4243   5.468   0.565   5.527
   47POPE   C22 4244   5.623   0.739   5.470
   47POPE   H2R 4245   5.718   0.740   5.527
   47POPE   H2S 4246   5.589   0.845   5.458
   47POPE    C3 4247   5.262   0.696   5.686
   47POPE    HX 4248   5.188   0.647   5.753
   47POPE    HY 4249   5.261   0.634   5.595
   47POPE   O31 4250   5.215   0.831   5.660
   47POPE   C31 4251   5.254   0.886   5.544
   47POPE   O32 4252   5.320   0.833   5.458
   47POPE   C32 4253   5.207   1.031   5.534
   47POPE   H2X 4254   5.200   1.075   5.636
   47POPE   H2Y 4255   5.106   1.030   5.487
   47POPE   C23 4256   5.643   0.677   5.329
   47POPE   H3R 4257   5.554   0.700   5.266
   47POPE   H3S 4258   5.654   0.567   5.332
   47POPE   C24 4259   5.764   0.745   5.266
   47POPE   H4R 4260   5.798   0.805   5.351
   47POPE   H4S 4261   5.734   0.818   5.188
   47POPE   C25 4262   5.887   0.665   5.225
   47POPE   H5R 4263   5.915   0.585   5.295
   47POPE   H5S 4264   5.975   0.732   5.230
   47POPE   C26 4265   5.888   0.621   5.080
   47POPE   H6R 4266   5.824   0.690   5.020
   47POPE   H6S 4267   5.844   0.519   5.072
   47POPE   C27 4268   6.030   0.631   5.023
   47POPE   H7R 4269   6.094   0.555   5.072
   47POPE   H7S 4270   6.074   0.731   5.046
   47POPE   C28 4271   6.030   0.614   4.872
   47POPE   H8R 4272   6.135   0.609   4.840
   47POPE   H8S 4273   5.982   0.700   4.821
   47POPE   C29 4274   5.967   0.483   4.841
   47POPE   H91 4275   6.020   0.403   4.895
   47POPE  C210 4276   5.849   0.454   4.784
   47POPE  H101 4277   5.820   0.349   4.774
   47POPE  C211 4278   5.746   0.550   4.735
   47POPE  H11R 4279   5.755   0.642   4.795
   47POPE  H11S 4280   5.647   0.512   4.766
   47POPE  C212 4281   5.733   0.578   4.583
   47POPE  H12R 4282   5.761   0.488   4.525
   47POPE  H12S 4283   5.804   0.659   4.555
   47POPE  C213 4284   5.587   0.618   4.555
   47POPE  H13R 4285   5.560   0.690   4.636
   47POPE  H13S 4286   5.521   0.530   4.567
   47POPE  C214 4287   5.553   0.687   4.421
   47POPE  H14R 4288   5.491   0.618   4.359
   47POPE  H14S 4289   5.647   0.707   4.367
   47POPE  C215 4290   5.476   0.819   4.446
   47POPE  H15R 4291   5.533   0.881   4.517
   47POPE  H15S 4292   5.383   0.804   4.500
   47POPE  C216 4293   5.445   0.909   4.326
   47POPE  H16R 4294   5.543   0.943   4.286
   47POPE  H16S 4295   5.391   0.999   4.362
   47POPE  C217 4296   5.368   0.855   4.206
   47POPE  H17R 4297   5.258   0.851   4.217
   47POPE  H17S 4298   5.405   0.754   4.177
   47POPE  C218 4299   5.393   0.954   4.095
   47POPE  H18R 4300   5.502   0.953   4.077
   47POPE  H18S 4301   5.362   1.056   4.126
   47POPE  H18T 4302   5.343   0.925   4.001
   47POPE   C33 4303   5.304   1.116   5.447
   47POPE   H3X 4304   5.256   1.212   5.421
   47POPE   H3Y 4305   5.327   1.064   5.351
   47POPE   C34 4306   5.434   1.147   5.522
   47POPE   H4X 4307   5.490   1.051   5.538
   47POPE   H4Y 4308   5.411   1.189   5.622
   47POPE   C35 4309   5.526   1.245   5.448
   47POPE   H5X 4310   5.617   1.262   5.506
   47POPE   H5Y 4311   5.484   1.345   5.442
   47POPE   C36 4312   5.567   1.200   5.310
   47POPE   H6X 4313   5.478   1.206   5.244
   47POPE   H6Y 4314   5.600   1.094   5.317
   47POPE   C37 4315   5.680   1.285   5.249
   47POPE   H7X 4316   5.774   1.270   5.302
   47POPE   H7Y 4317   5.663   1.393   5.263
   47POPE   C38 4318   5.698   1.252   5.102
   47POPE   H8X 4319   5.803   1.276   5.074
   47POPE   H8Y 4320   5.634   1.316   5.038
   47POPE   C39 4321   5.666   1.105   5.071
   47POPE   H9X 4322   5.560   1.079   5.094
   47POPE   H9Y 4323   5.732   1.039   5.132
   47POPE  C310 4324   5.684   1.078   4.924
   47POPE  H10X 4325   5.780   1.126   4.895
   47POPE  H10Y 4326   5.602   1.126   4.866
   47POPE  C311 4327   5.693   0.929   4.892
   47POPE  H11X 4328   5.591   0.887   4.873
   47POPE  H11Y 4329   5.738   0.873   4.977
   47POPE  C312 4330   5.781   0.912   4.769
   47POPE  H12X 4331   5.765   0.813   4.724
   47POPE  H12Y 4332   5.888   0.920   4.794
   47POPE  C313 4333   5.742   1.010   4.661
   47POPE  H13X 4334   5.785   1.111   4.679
   47POPE  H13Y 4335   5.631   1.022   4.666
   47POPE  C314 4336   5.783   0.954   4.526
   47POPE  H14X 4337   5.727   0.861   4.509
   47POPE  H14Y 4338   5.890   0.923   4.527
   47POPE  C315 4339   5.757   1.051   4.412
   47POPE  H15X 4340   5.744   0.989   4.320
   47POPE  H15Y 4341   5.848   1.111   4.398
   47POPE  C316 4342   5.637   1.145   4.429
   47POPE  H16X 4343   5.671   1.240   4.475
   47POPE  H16Y 4344   5.559   1.102   4.496
   47POPE  H16Z 4345   5.588   1.165   4.331
   48POPE     N 4346   1.903   6.540   6.323
   48POPE   HN1 4347   1.943   6.444   6.338
   48POPE   HN2 4348   1.935   6.606   6.396
   48POPE   HN3 4349   1.797   6.527   6.329
   48POPE   C12 4350   1.940   6.582   6.183
   48POPE  H12A 4351   2.045   6.555   6.165
   48POPE  H12B 4352   1.926   6.692   6.176
   48POPE   C11 4353   1.849   6.512   6.082
   48POPE  H11A 4354   1.857   6.401   6.091
   48POPE  H11B 4355   1.879   6.536   5.978
   48POPE     P 4356   1.605   6.469   6.161
   48POPE   O13 4357   1.655   6.442   6.299
   48POPE   O14 4358   1.589   6.350   6.077
   48POPE   O11 4359   1.477   6.562   6.165
   48POPE   O12 4360   1.718   6.560   6.099
   48POPE    C1 4361   1.480   6.683   6.084
   48POPE    HA 4362   1.572   6.744   6.099
   48POPE    HB 4363   1.397   6.750   6.117
   48POPE    C2 4364   1.458   6.654   5.931
   48POPE    HS 4365   1.377   6.578   5.933
   48POPE   O21 4366   1.579   6.604   5.871
   48POPE   C21 4367   1.556   6.506   5.785
   48POPE   O22 4368   1.448   6.454   5.762
   48POPE   C22 4369   1.687   6.474   5.714
   48POPE   H2R 4370   1.758   6.441   5.792
   48POPE   H2S 4371   1.726   6.568   5.669
   48POPE    C3 4372   1.408   6.779   5.850
   48POPE    HX 4373   1.494   6.851   5.847
   48POPE    HY 4374   1.329   6.831   5.909
   48POPE   O31 4375   1.362   6.755   5.712
   48POPE   C31 4376   1.243   6.693   5.706
   48POPE   O32 4377   1.197   6.629   5.800
   48POPE   C32 4378   1.157   6.721   5.576
   48POPE   H2X 4379   1.086   6.795   5.612
   48POPE   H2Y 4380   1.098   6.633   5.557
   48POPE   C23 4381   1.669   6.367   5.605
   48POPE   H3R 4382   1.660   6.414   5.505
   48POPE   H3S 4383   1.575   6.311   5.620
   48POPE   C24 4384   1.782   6.262   5.607
   48POPE   H4R 4385   1.737   6.162   5.588
   48POPE   H4S 4386   1.828   6.258   5.708
   48POPE   C25 4387   1.886   6.291   5.500
   48POPE   H5R 4388   1.986   6.249   5.526
   48POPE   H5S 4389   1.900   6.402   5.496
   48POPE   C26 4390   1.840   6.233   5.366
   48POPE   H6R 4391   1.729   6.236   5.359
   48POPE   H6S 4392   1.868   6.126   5.364
   48POPE   C27 4393   1.896   6.308   5.246
   48POPE   H7R 4394   1.882   6.251   5.152
   48POPE   H7S 4395   2.006   6.320   5.261
   48POPE   C28 4396   1.830   6.446   5.237
   48POPE   H8R 4397   1.904   6.514   5.194
   48POPE   H8S 4398   1.808   6.489   5.337
   48POPE   C29 4399   1.705   6.448   5.153
   48POPE   H91 4400   1.635   6.364   5.167
   48POPE  C210 4401   1.677   6.547   5.067
   48POPE  H101 4402   1.590   6.539   5.002
   48POPE  C211 4403   1.767   6.666   5.045
   48POPE  H11R 4404   1.780   6.727   5.138
   48POPE  H11S 4405   1.867   6.626   5.018
   48POPE  C212 4406   1.728   6.760   4.931
   48POPE  H12R 4407   1.820   6.808   4.890
   48POPE  H12S 4408   1.685   6.695   4.851
   48POPE  C213 4409   1.626   6.869   4.965
   48POPE  H13R 4410   1.623   6.893   5.073
   48POPE  H13S 4411   1.532   6.818   4.938
   48POPE  C214 4412   1.627   6.996   4.878
   48POPE  H14R 4413   1.688   6.972   4.790
   48POPE  H14S 4414   1.671   7.082   4.932
   48POPE  C215 4415   1.482   7.021   4.836
   48POPE  H15R 4416   1.426   7.004   4.932
   48POPE  H15S 4417   1.452   6.943   4.763
   48POPE  C216 4418   1.429   7.156   4.787
   48POPE  H16R 4419   1.470   7.185   4.688
   48POPE  H16S 4420   1.451   7.236   4.860
   48POPE  C217 4421   1.277   7.135   4.777
   48POPE  H17R 4422   1.252   7.072   4.866
   48POPE  H17S 4423   1.251   7.073   4.689
   48POPE  C218 4424   1.186   7.257   4.787
   48POPE  H18R 4425   1.083   7.225   4.810
   48POPE  H18S 4426   1.179   7.315   4.694
   48POPE  H18T 4427   1.214   7.322   4.871
   48POPE   C33 4428   1.198   6.749   5.426
   48POPE   H3X 4429   1.304   6.733   5.410
   48POPE   H3Y 4430   1.202   6.860   5.421
   48POPE   C34 4431   1.102   6.707   5.302
   48POPE   H4X 4432   1.143   6.753   5.212
   48POPE   H4Y 4433   1.016   6.771   5.326
   48POPE   C35 4434   1.022   6.574   5.254
   48POPE   H5X 4435   0.951   6.612   5.178
   48POPE   H5Y 4436   0.961   6.549   5.342
   48POPE   C36 4437   1.068   6.432   5.189
   48POPE   H6X 4438   0.984   6.361   5.205
   48POPE   H6Y 4439   1.155   6.388   5.242
   48POPE   C37 4440   1.116   6.417   5.043
   48POPE   H7X 4441   1.175   6.505   5.025
   48POPE   H7Y 4442   1.032   6.410   4.970
   48POPE   C38 4443   1.230   6.317   5.011
   48POPE   H8X 4444   1.190   6.214   5.019
   48POPE   H8Y 4445   1.310   6.322   5.087
   48POPE   C39 4446   1.288   6.338   4.868
   48POPE   H9X 4447   1.200   6.351   4.801
   48POPE   H9Y 4448   1.340   6.247   4.834
   48POPE  C310 4449   1.396   6.445   4.831
   48POPE  H10X 4450   1.496   6.410   4.865
   48POPE  H10Y 4451   1.378   6.542   4.880
   48POPE  C311 4452   1.400   6.459   4.676
   48POPE  H11X 4453   1.297   6.437   4.638
   48POPE  H11Y 4454   1.468   6.382   4.634
   48POPE  C312 4455   1.435   6.597   4.617
   48POPE  H12X 4456   1.542   6.620   4.633
   48POPE  H12Y 4457   1.379   6.675   4.674
   48POPE  C313 4458   1.399   6.615   4.466
   48POPE  H13X 4459   1.300   6.570   4.444
   48POPE  H13Y 4460   1.474   6.563   4.404
   48POPE  C314 4461   1.396   6.766   4.432
   48POPE  H14X 4462   1.494   6.799   4.470
   48POPE  H14Y 4463   1.320   6.818   4.493
   48POPE  C315 4464   1.388   6.814   4.286
   48POPE  H15X 4465   1.286   6.855   4.265
   48POPE  H15Y 4466   1.404   6.731   4.215
   48POPE  C316 4467   1.490   6.925   4.257
   48POPE  H16X 4468   1.574   6.923   4.329
   48POPE  H16Y 4469   1.444   7.026   4.261
   48POPE  H16Z 4470   1.536   6.910   4.158
   49POPE     N 4471   6.551   6.559   6.172
   49POPE   HN1 4472   6.479   6.539   6.245
   49POPE   HN2 4473   6.617   6.635   6.201
   49POPE   HN3 4474   6.505   6.589   6.084
   49POPE   C12 4475   6.619   6.427   6.149
   49POPE  H12A 4476   6.676   6.402   6.242
   49POPE  H12B 4477   6.690   6.439   6.065
   49POPE   C11 4478   6.519   6.314   6.118
   49POPE  H11A 4479   6.573   6.217   6.113
   49POPE  H11B 4480   6.473   6.331   6.018
   49POPE     P 4481   6.275   6.248   6.198
   49POPE   O13 4482   6.212   6.231   6.332
   49POPE   O14 4483   6.277   6.136   6.102
   49POPE   O11 4484   6.211   6.376   6.131
   49POPE   O12 4485   6.421   6.307   6.220
   49POPE    C1 4486   6.081   6.361   6.071
   49POPE    HA 4487   6.004   6.415   6.132
   49POPE    HB 4488   6.046   6.255   6.062
   49POPE    C2 4489   6.076   6.416   5.926
   49POPE    HS 4490   5.970   6.406   5.893
   49POPE   O21 4491   6.167   6.341   5.844
   49POPE   C21 4492   6.121   6.297   5.728
   49POPE   O22 4493   6.005   6.305   5.689
   49POPE   C22 4494   6.236   6.227   5.656
   49POPE   H2R 4495   6.226   6.120   5.682
   49POPE   H2S 4496   6.333   6.264   5.696
   49POPE    C3 4497   6.111   6.569   5.919
   49POPE    HX 4498   6.062   6.614   6.008
   49POPE    HY 4499   6.061   6.614   5.830
   49POPE   O31 4500   6.254   6.596   5.923
   49POPE   C31 4501   6.312   6.576   5.803
   49POPE   O32 4502   6.250   6.556   5.701
   49POPE   C32 4503   6.463   6.561   5.816
   49POPE   H2X 4504   6.482   6.454   5.838
   49POPE   H2Y 4505   6.500   6.624   5.899
   49POPE   C23 4506   6.236   6.245   5.502
   49POPE   H3R 4507   6.308   6.324   5.472
   49POPE   H3S 4508   6.136   6.278   5.466
   49POPE   C24 4509   6.270   6.113   5.432
   49POPE   H4R 4510   6.177   6.072   5.387
   49POPE   H4S 4511   6.307   6.038   5.505
   49POPE   C25 4512   6.372   6.122   5.318
   49POPE   H5R 4513   6.473   6.144   5.358
   49POPE   H5S 4514   6.342   6.206   5.253
   49POPE   C26 4515   6.371   5.989   5.240
   49POPE   H6R 4516   6.267   5.971   5.205
   49POPE   H6S 4517   6.396   5.905   5.309
   49POPE   C27 4518   6.465   5.984   5.119
   49POPE   H7R 4519   6.435   5.896   5.056
   49POPE   H7S 4520   6.570   5.967   5.152
   49POPE   C28 4521   6.461   6.110   5.032
   49POPE   H8R 4522   6.529   6.094   4.945
   49POPE   H8S 4523   6.505   6.196   5.087
   49POPE   C29 4524   6.318   6.136   4.990
   49POPE   H91 4525   6.256   6.194   5.061
   49POPE  C210 4526   6.263   6.094   4.875
   49POPE  H101 4527   6.161   6.124   4.849
   49POPE  C211 4528   6.339   6.017   4.772
   49POPE  H11R 4529   6.272   5.957   4.706
   49POPE  H11S 4530   6.413   5.947   4.816
   49POPE  C212 4531   6.412   6.125   4.692
   49POPE  H12R 4532   6.488   6.076   4.629
   49POPE  H12S 4533   6.471   6.189   4.761
   49POPE  C213 4534   6.316   6.213   4.609
   49POPE  H13R 4535   6.372   6.293   4.555
   49POPE  H13S 4536   6.243   6.266   4.674
   49POPE  C214 4537   6.244   6.136   4.499
   49POPE  H14R 4538   6.195   6.212   4.436
   49POPE  H14S 4539   6.163   6.073   4.544
   49POPE  C215 4540   6.341   6.047   4.418
   49POPE  H15R 4541   6.287   6.002   4.333
   49POPE  H15S 4542   6.373   5.962   4.483
   49POPE  C216 4543   6.466   6.121   4.368
   49POPE  H16R 4544   6.523   6.169   4.450
   49POPE  H16S 4545   6.436   6.204   4.301
   49POPE  C217 4546   6.564   6.029   4.294
   49POPE  H17R 4547   6.619   6.092   4.221
   49POPE  H17S 4548   6.507   5.952   4.238
   49POPE  C218 4549   6.666   5.964   4.388
   49POPE  H18R 4550   6.616   5.898   4.461
   49POPE  H18S 4551   6.723   6.042   4.443
   49POPE  H18T 4552   6.739   5.904   4.329
   49POPE   C33 4553   6.541   6.599   5.687
   49POPE   H3X 4554   6.648   6.585   5.712
   49POPE   H3Y 4555   6.529   6.706   5.662
   49POPE   C34 4556   6.515   6.513   5.562
   49POPE   H4X 4557   6.418   6.545   5.518
   49POPE   H4Y 4558   6.505   6.405   5.587
   49POPE   C35 4559   6.627   6.531   5.459
   49POPE   H5X 4560   6.717   6.479   5.498
   49POPE   H5Y 4561   6.651   6.640   5.451
   49POPE   C36 4562   6.600   6.477   5.318
   49POPE   H6X 4563   6.585   6.367   5.323
   49POPE   H6Y 4564   6.690   6.496   5.255
   49POPE   C37 4565   6.480   6.543   5.250
   49POPE   H7X 4566   6.499   6.652   5.247
   49POPE   H7Y 4567   6.389   6.528   5.312
   49POPE   C38 4568   6.448   6.488   5.111
   49POPE   H8X 4569   6.361   6.544   5.071
   49POPE   H8Y 4570   6.416   6.382   5.119
   49POPE   C39 4571   6.560   6.502   5.007
   49POPE   H9X 4572   6.643   6.431   5.028
   49POPE   H9Y 4573   6.603   6.604   5.009
   49POPE  C310 4574   6.505   6.478   4.867
   49POPE  H10X 4575   6.417   6.544   4.848
   49POPE  H10Y 4576   6.470   6.373   4.862
   49POPE  C311 4577   6.608   6.502   4.756
   49POPE  H11X 4578   6.702   6.452   4.787
   49POPE  H11Y 4579   6.629   6.611   4.745
   49POPE  C312 4580   6.559   6.441   4.625
   49POPE  H12X 4581   6.462   6.486   4.595
   49POPE  H12Y 4582   6.545   6.334   4.647
   49POPE  C313 4583   6.656   6.441   4.508
   49POPE  H13X 4584   6.611   6.385   4.423
   49POPE  H13Y 4585   6.745   6.385   4.537
   49POPE  C314 4586   6.693   6.581   4.462
   49POPE  H14X 4587   6.803   6.585   4.441
   49POPE  H14Y 4588   6.673   6.656   4.542
   49POPE  C315 4589   6.614   6.613   4.337
   49POPE  H15X 4590   6.601   6.722   4.326
   49POPE  H15Y 4591   6.511   6.571   4.345
   49POPE  C316 4592   6.685   6.558   4.215
   49POPE  H16X 4593   6.652   6.455   4.191
   49POPE  H16Y 4594   6.795   6.558   4.230
   49POPE  H16Z 4595   6.666   6.624   4.128
   50POPE     N 4596   4.937  -0.032   6.241
   50POPE   HN1 4597   4.886  -0.027   6.149
   50POPE   HN2 4598   5.020  -0.097   6.238
   50POPE   HN3 4599   4.871  -0.069   6.313
   50POPE   C12 4600   4.971   0.109   6.279
   50POPE  H12A 4601   5.015   0.158   6.190
   50POPE  H12B 4602   5.045   0.107   6.361
   50POPE   C11 4603   4.840   0.178   6.323
   50POPE  H11A 4604   4.855   0.288   6.333
   50POPE  H11B 4605   4.813   0.143   6.425
   50POPE     P 4606   4.732   0.206   6.087
   50POPE   O13 4607   4.597   0.257   6.050
   50POPE   O14 4608   4.794   0.100   6.005
   50POPE   O11 4609   4.836   0.323   6.104
   50POPE   O12 4610   4.731   0.150   6.235
   50POPE    C1 4611   4.817   0.439   6.025
   50POPE    HA 4612   4.878   0.522   6.065
   50POPE    HB 4613   4.711   0.474   6.028
   50POPE    C2 4614   4.858   0.412   5.879
   50POPE    HS 4615   4.812   0.317   5.842
   50POPE   O21 4616   5.003   0.410   5.870
   50POPE   C21 4617   5.060   0.311   5.800
   50POPE   O22 4618   5.002   0.229   5.732
   50POPE   C22 4619   5.212   0.323   5.813
   50POPE   H2R 4620   5.244   0.287   5.913
   50POPE   H2S 4621   5.238   0.430   5.805
   50POPE    C3 4622   4.793   0.528   5.800
   50POPE    HX 4623   4.810   0.623   5.857
   50POPE    HY 4624   4.682   0.513   5.794
   50POPE   O31 4625   4.853   0.544   5.674
   50POPE   C31 4626   4.817   0.459   5.582
   50POPE   O32 4627   4.725   0.380   5.585
   50POPE   C32 4628   4.915   0.479   5.468
   50POPE   H2X 4629   4.872   0.439   5.375
   50POPE   H2Y 4630   5.002   0.418   5.490
   50POPE   C23 4631   5.288   0.246   5.702
   50POPE   H3R 4632   5.261   0.138   5.705
   50POPE   H3S 4633   5.397   0.254   5.719
   50POPE   C24 4634   5.258   0.306   5.564
   50POPE   H4R 4635   5.314   0.401   5.555
   50POPE   H4S 4636   5.152   0.331   5.561
   50POPE   C25 4637   5.289   0.218   5.443
   50POPE   H5R 4638   5.385   0.167   5.461
   50POPE   H5S 4639   5.303   0.284   5.354
   50POPE   C26 4640   5.181   0.115   5.407
   50POPE   H6R 4641   5.173   0.039   5.487
   50POPE   H6S 4642   5.216   0.065   5.314
   50POPE   C27 4643   5.043   0.174   5.375
   50POPE   H7R 4644   5.057   0.252   5.297
   50POPE   H7S 4645   5.003   0.221   5.467
   50POPE   C28 4646   4.936   0.071   5.333
   50POPE   H8R 4647   4.880   0.040   5.424
   50POPE   H8S 4648   4.988  -0.020   5.298
   50POPE   C29 4649   4.840   0.124   5.229
   50POPE   H91 4650   4.756   0.182   5.268
   50POPE  C210 4651   4.854   0.107   5.096
   50POPE  H101 4652   4.779   0.150   5.027
   50POPE  C211 4653   4.967   0.034   5.028
   50POPE  H11R 4654   4.928  -0.040   4.955
   50POPE  H11S 4655   5.026  -0.026   5.100
   50POPE  C212 4656   5.064   0.130   4.959
   50POPE  H12R 4657   5.146   0.071   4.911
   50POPE  H12S 4658   5.112   0.197   5.034
   50POPE  C213 4659   4.997   0.215   4.851
   50POPE  H13R 4660   5.080   0.265   4.797
   50POPE  H13S 4661   4.934   0.293   4.898
   50POPE  C214 4662   4.912   0.134   4.751
   50POPE  H14R 4663   4.839   0.067   4.801
   50POPE  H14S 4664   4.982   0.068   4.695
   50POPE  C215 4665   4.832   0.222   4.654
   50POPE  H15R 4666   4.743   0.264   4.705
   50POPE  H15S 4667   4.794   0.159   4.570
   50POPE  C216 4668   4.919   0.332   4.594
   50POPE  H16R 4669   4.975   0.383   4.674
   50POPE  H16S 4670   4.854   0.410   4.552
   50POPE  C217 4671   5.013   0.266   4.491
   50POPE  H17R 4672   4.948   0.220   4.414
   50POPE  H17S 4673   5.064   0.183   4.545
   50POPE  C218 4674   5.127   0.344   4.425
   50POPE  H18R 4675   5.213   0.347   4.494
   50POPE  H18S 4676   5.102   0.447   4.394
   50POPE  H18T 4677   5.163   0.290   4.336
   50POPE   C33 4678   4.964   0.626   5.463
   50POPE   H3X 4679   5.034   0.644   5.547
   50POPE   H3Y 4680   4.881   0.698   5.477
   50POPE   C34 4681   5.034   0.657   5.332
   50POPE   H4X 4682   5.053   0.766   5.322
   50POPE   H4Y 4683   4.968   0.627   5.247
   50POPE   C35 4684   5.165   0.580   5.322
   50POPE   H5X 4685   5.157   0.478   5.364
   50POPE   H5Y 4686   5.245   0.631   5.377
   50POPE   C36 4687   5.202   0.570   5.176
   50POPE   H6X 4688   5.202   0.676   5.142
   50POPE   H6Y 4689   5.124   0.514   5.120
   50POPE   C37 4690   5.337   0.506   5.152
   50POPE   H7X 4691   5.335   0.400   5.186
   50POPE   H7Y 4692   5.414   0.558   5.211
   50POPE   C38 4693   5.372   0.508   5.004
   50POPE   H8X 4694   5.327   0.419   4.956
   50POPE   H8Y 4695   5.483   0.501   4.992
   50POPE   C39 4696   5.323   0.632   4.929
   50POPE   H9X 4697   5.380   0.721   4.964
   50POPE   H9Y 4698   5.214   0.653   4.941
   50POPE  C310 4699   5.344   0.611   4.781
   50POPE  H10X 4700   5.443   0.563   4.771
   50POPE  H10Y 4701   5.355   0.711   4.734
   50POPE  C311 4702   5.237   0.520   4.716
   50POPE  H11X 4703   5.199   0.444   4.787
   50POPE  H11Y 4704   5.289   0.468   4.633
   50POPE  C312 4705   5.121   0.592   4.649
   50POPE  H12X 4706   5.045   0.615   4.725
   50POPE  H12Y 4707   5.065   0.532   4.576
   50POPE  C313 4708   5.180   0.702   4.565
   50POPE  H13X 4709   5.274   0.654   4.529
   50POPE  H13Y 4710   5.205   0.792   4.625
   50POPE  C314 4711   5.107   0.737   4.437
   50POPE  H14X 4712   5.045   0.652   4.402
   50POPE  H14Y 4713   5.182   0.756   4.359
   50POPE  C315 4714   5.023   0.860   4.462
   50POPE  H15X 4715   4.996   0.847   4.568
   50POPE  H15Y 4716   4.930   0.858   4.402
   50POPE  C316 4717   5.095   0.994   4.448
   50POPE  H16X 4718   5.116   1.017   4.341
   50POPE  H16Y 4719   5.191   0.993   4.504
   50POPE  H16Z 4720   5.032   1.076   4.490
   51POPE     N 4721   6.709   1.086   6.214
   51POPE   HN1 4722   6.732   1.072   6.315
   51POPE   HN2 4723   6.672   0.998   6.173
   51POPE   HN3 4724   6.797   1.112   6.162
   51POPE   C12 4725   6.617   1.204   6.199
   51POPE  H12A 4726   6.513   1.171   6.221
   51POPE  H12B 4727   6.622   1.236   6.092
   51POPE   C11 4728   6.654   1.323   6.293
   51POPE  H11A 4729   6.624   1.297   6.397
   51POPE  H11B 4730   6.594   1.412   6.264
   51POPE     P 4731   6.860   1.405   6.162
   51POPE   O13 4732   6.985   1.476   6.192
   51POPE   O14 4733   6.757   1.466   6.076
   51POPE   O11 4734   6.888   1.260   6.107
   51POPE   O12 4735   6.793   1.357   6.297
   51POPE    C1 4736   7.018   1.202   6.106
   51POPE    HA 4737   7.032   1.139   6.196
   51POPE    HB 4738   7.100   1.278   6.106
   51POPE    C2 4739   7.036   1.116   5.981
   51POPE    HS 4740   7.130   1.058   5.997
   51POPE   O21 4741   7.053   1.203   5.869
   51POPE   C21 4742   7.102   1.144   5.765
   51POPE   O22 4743   7.123   1.024   5.750
   51POPE   C22 4744   7.135   1.248   5.664
   51POPE   H2R 4745   7.212   1.316   5.703
   51POPE   H2S 4746   7.047   1.306   5.637
   51POPE    C3 4747   6.915   1.018   5.958
   51POPE    HX 4748   6.901   0.965   6.055
   51POPE    HY 4749   6.940   0.939   5.884
   51POPE   O31 4750   6.794   1.091   5.925
   51POPE   C31 4751   6.794   1.134   5.797
   51POPE   O32 4752   6.827   1.067   5.701
   51POPE   C32 4753   6.762   1.285   5.791
   51POPE   H2X 4754   6.807   1.333   5.879
   51POPE   H2Y 4755   6.652   1.291   5.803
   51POPE   C23 4756   7.175   1.172   5.542
   51POPE   H3R 4757   7.105   1.089   5.518
   51POPE   H3S 4758   7.277   1.130   5.563
   51POPE   C24 4759   7.180   1.262   5.422
   51POPE   H4R 4760   7.196   1.368   5.454
   51POPE   H4S 4761   7.085   1.257   5.364
   51POPE   C25 4762   7.298   1.215   5.341
   51POPE   H5R 4763   7.389   1.239   5.400
   51POPE   H5S 4764   7.301   1.271   5.246
   51POPE   C26 4765   7.292   1.065   5.312
   51POPE   H6R 4766   7.227   1.005   5.379
   51POPE   H6S 4767   7.390   1.016   5.322
   51POPE   C27 4768   7.245   1.045   5.171
   51POPE   H7R 4769   7.322   1.085   5.102
   51POPE   H7S 4770   7.153   1.107   5.157
   51POPE   C28 4771   7.225   0.897   5.144
   51POPE   H8R 4772   7.290   0.838   5.212
   51POPE   H8S 4773   7.255   0.875   5.039
   51POPE   C29 4774   7.081   0.863   5.168
   51POPE   H91 4775   7.057   0.826   5.269
   51POPE  C210 4776   6.983   0.896   5.085
   51POPE  H101 4777   6.879   0.863   5.104
   51POPE  C211 4778   7.004   0.973   4.958
   51POPE  H11R 4779   7.011   0.908   4.869
   51POPE  H11S 4780   7.100   1.027   4.960
   51POPE  C212 4781   6.891   1.076   4.948
   51POPE  H12R 4782   6.795   1.029   4.979
   51POPE  H12S 4783   6.883   1.106   4.841
   51POPE  C213 4784   6.920   1.199   5.034
   51POPE  H13R 4785   7.019   1.237   5.002
   51POPE  H13S 4786   6.932   1.166   5.140
   51POPE  C214 4787   6.821   1.318   5.036
   51POPE  H14R 4788   6.878   1.404   5.079
   51POPE  H14S 4789   6.742   1.294   5.111
   51POPE  C215 4790   6.748   1.372   4.909
   51POPE  H15R 4791   6.716   1.475   4.937
   51POPE  H15S 4792   6.656   1.313   4.893
   51POPE  C216 4793   6.818   1.385   4.773
   51POPE  H16R 4794   6.836   1.285   4.729
   51POPE  H16S 4795   6.917   1.430   4.783
   51POPE  C217 4796   6.743   1.479   4.677
   51POPE  H17R 4797   6.738   1.579   4.726
   51POPE  H17S 4798   6.638   1.448   4.663
   51POPE  C218 4799   6.806   1.495   4.538
   51POPE  H18R 4800   6.916   1.486   4.544
   51POPE  H18S 4801   6.781   1.595   4.498
   51POPE  H18T 4802   6.772   1.418   4.466
   51POPE   C33 4803   6.812   1.363   5.663
   51POPE   H3X 4804   6.727   1.409   5.611
   51POPE   H3Y 4805   6.859   1.294   5.591
   51POPE   C34 4806   6.896   1.490   5.691
   51POPE   H4X 4807   6.974   1.465   5.767
   51POPE   H4Y 4808   6.828   1.563   5.742
   51POPE   C35 4809   6.968   1.564   5.573
   51POPE   H5X 4810   7.076   1.538   5.576
   51POPE   H5Y 4811   6.959   1.671   5.602
   51POPE   C36 4812   6.922   1.562   5.423
   51POPE   H6X 4813   6.812   1.577   5.418
   51POPE   H6Y 4814   6.947   1.463   5.379
   51POPE   C37 4815   6.997   1.675   5.343
   51POPE   H7X 4816   7.103   1.646   5.358
   51POPE   H7Y 4817   6.980   1.772   5.393
   51POPE   C38 4818   6.979   1.699   5.188
   51POPE   H8X 4819   6.873   1.723   5.169
   51POPE   H8Y 4820   6.990   1.598   5.146
   51POPE   C39 4821   7.068   1.815   5.119
   51POPE   H9X 4822   7.101   1.884   5.198
   51POPE   H9Y 4823   6.988   1.872   5.065
   51POPE  C310 4824   7.177   1.812   4.998
   51POPE  H10X 4825   7.184   1.921   4.973
   51POPE  H10Y 4826   7.128   1.768   4.912
   51POPE  C311 4827   7.333   1.772   4.997
   51POPE  H11X 4828   7.352   1.691   5.066
   51POPE  H11Y 4829   7.393   1.859   5.030
   51POPE  C312 4830   7.406   1.708   4.874
   51POPE  H12X 4831   7.380   1.759   4.780
   51POPE  H12Y 4832   7.366   1.606   4.871
   51POPE  C313 4833   7.555   1.662   4.878
   51POPE  H13X 4834   7.566   1.589   4.961
   51POPE  H13Y 4835   7.626   1.744   4.898
   51POPE  C314 4836   7.598   1.590   4.746
   51POPE  H14X 4837   7.683   1.522   4.768
   51POPE  H14Y 4838   7.635   1.666   4.673
   51POPE  C315 4839   7.483   1.513   4.679
   51POPE  H15X 4840   7.407   1.588   4.647
   51POPE  H15Y 4841   7.436   1.448   4.756
   51POPE  C316 4842   7.512   1.429   4.555
   51POPE  H16X 4843   7.419   1.418   4.495
   51POPE  H16Y 4844   7.545   1.326   4.583
   51POPE  H16Z 4845   7.590   1.477   4.492
   52POPE     N 4846   6.035   6.811   6.227
   52POPE   HN1 4847   5.968   6.887   6.203
   52POPE   HN2 4848   6.026   6.738   6.154
   52POPE   HN3 4849   6.007   6.772   6.320
   52POPE   C12 4850   6.171   6.878   6.235
   52POPE  H12A 4851   6.211   6.886   6.132
   52POPE  H12B 4852   6.238   6.817   6.298
   52POPE   C11 4853   6.154   7.019   6.294
   52POPE  H11A 4854   6.249   7.078   6.286
   52POPE  H11B 4855   6.131   7.010   6.403
   52POPE     P 4856   6.059   7.177   6.104
   52POPE   O13 4857   6.150   7.291   6.135
   52POPE   O14 4858   5.920   7.207   6.062
   52POPE   O11 4859   6.130   7.086   5.995
   52POPE   O12 4860   6.046   7.085   6.231
   52POPE    C1 4861   6.162   7.152   5.870
   52POPE    HA 4862   6.272   7.169   5.865
   52POPE    HB 4863   6.113   7.251   5.854
   52POPE    C2 4864   6.124   7.061   5.751
   52POPE    HS 4865   6.171   7.101   5.658
   52POPE   O21 4866   5.979   7.051   5.741
   52POPE   C21 4867   5.926   7.153   5.673
   52POPE   O22 4868   5.989   7.229   5.603
   52POPE   C22 4869   5.773   7.159   5.692
   52POPE   H2R 4870   5.757   7.219   5.784
   52POPE   H2S 4871   5.736   7.057   5.710
   52POPE    C3 4872   6.189   6.924   5.780
   52POPE    HX 4873   6.136   6.880   5.867
   52POPE    HY 4874   6.295   6.941   5.810
   52POPE   O31 4875   6.181   6.834   5.670
   52POPE   C31 4876   6.267   6.858   5.572
   52POPE   O32 4877   6.345   6.952   5.565
   52POPE   C32 4878   6.247   6.756   5.462
   52POPE   H2X 4879   6.231   6.656   5.505
   52POPE   H2Y 4880   6.339   6.751   5.400
   52POPE   C23 4881   5.695   7.224   5.574
   52POPE   H3R 4882   5.758   7.304   5.535
   52POPE   H3S 4883   5.603   7.274   5.610
   52POPE   C24 4884   5.666   7.130   5.457
   52POPE   H4R 4885   5.581   7.063   5.484
   52POPE   H4S 4886   5.758   7.069   5.443
   52POPE   C25 4887   5.640   7.195   5.320
   52POPE   H5R 4888   5.612   7.302   5.329
   52POPE   H5S 4889   5.553   7.143   5.272
   52POPE   C26 4890   5.761   7.175   5.227
   52POPE   H6R 4891   5.795   7.069   5.233
   52POPE   H6S 4892   5.849   7.234   5.261
   52POPE   C27 4893   5.732   7.209   5.081
   52POPE   H7R 4894   5.820   7.265   5.042
   52POPE   H7S 4895   5.645   7.278   5.075
   52POPE   C28 4896   5.708   7.082   4.998
   52POPE   H8R 4897   5.614   7.032   5.030
   52POPE   H8S 4898   5.791   7.010   5.019
   52POPE   C29 4899   5.706   7.120   4.854
   52POPE   H91 4900   5.607   7.119   4.806
   52POPE  C210 4901   5.815   7.146   4.780
   52POPE  H101 4902   5.802   7.175   4.675
   52POPE  C211 4903   5.958   7.142   4.826
   52POPE  H11R 4904   5.970   7.100   4.928
   52POPE  H11S 4905   6.000   7.244   4.827
   52POPE  C212 4906   6.033   7.053   4.725
   52POPE  H12R 4907   6.044   7.108   4.630
   52POPE  H12S 4908   5.973   6.963   4.703
   52POPE  C213 4909   6.168   6.997   4.768
   52POPE  H13R 4910   6.161   6.952   4.868
   52POPE  H13S 4911   6.238   7.082   4.776
   52POPE  C214 4912   6.224   6.890   4.671
   52POPE  H14R 4913   6.324   6.862   4.706
   52POPE  H14S 4914   6.240   6.935   4.571
   52POPE  C215 4915   6.145   6.758   4.660
   52POPE  H15R 4916   6.036   6.776   4.649
   52POPE  H15S 4917   6.161   6.703   4.756
   52POPE  C216 4918   6.192   6.667   4.545
   52POPE  H16R 4919   6.173   6.561   4.571
   52POPE  H16S 4920   6.302   6.680   4.531
   52POPE  C217 4921   6.119   6.698   4.414
   52POPE  H17R 4922   6.124   6.808   4.400
   52POPE  H17S 4923   6.011   6.671   4.425
   52POPE  C218 4924   6.176   6.632   4.289
   52POPE  H18R 4925   6.114   6.655   4.200
   52POPE  H18S 4926   6.180   6.521   4.301
   52POPE  H18T 4927   6.279   6.668   4.269
   52POPE   C33 4928   6.123   6.792   5.380
   52POPE   H3X 4929   6.044   6.842   5.441
   52POPE   H3Y 4930   6.076   6.696   5.348
   52POPE   C34 4931   6.163   6.878   5.261
   52POPE   H4X 4932   6.272   6.866   5.240
   52POPE   H4Y 4933   6.145   6.985   5.285
   52POPE   C35 4934   6.088   6.835   5.136
   52POPE   H5X 4935   6.109   6.906   5.053
   52POPE   H5Y 4936   5.980   6.848   5.159
   52POPE   C36 4937   6.126   6.692   5.091
   52POPE   H6X 4938   6.134   6.621   5.176
   52POPE   H6Y 4939   6.225   6.696   5.042
   52POPE   C37 4940   6.023   6.634   4.996
   52POPE   H7X 4941   6.050   6.533   4.960
   52POPE   H7Y 4942   6.024   6.702   4.907
   52POPE   C38 4943   5.883   6.634   5.056
   52POPE   H8X 4944   5.879   6.679   5.157
   52POPE   H8Y 4945   5.844   6.531   5.068
   52POPE   C39 4946   5.794   6.714   4.962
   52POPE   H9X 4947   5.841   6.810   4.932
   52POPE   H9Y 4948   5.697   6.738   5.010
   52POPE  C310 4949   5.774   6.627   4.839
   52POPE  H10X 4950   5.775   6.519   4.870
   52POPE  H10Y 4951   5.855   6.639   4.765
   52POPE  C311 4952   5.637   6.652   4.782
   52POPE  H11X 4953   5.564   6.645   4.865
   52POPE  H11Y 4954   5.619   6.565   4.718
   52POPE  C312 4955   5.617   6.786   4.711
   52POPE  H12X 4956   5.591   6.864   4.786
   52POPE  H12Y 4957   5.533   6.778   4.640
   52POPE  C313 4958   5.736   6.833   4.628
   52POPE  H13X 4959   5.781   6.747   4.575
   52POPE  H13Y 4960   5.810   6.866   4.703
   52POPE  C314 4961   5.706   6.949   4.530
   52POPE  H14X 4962   5.798   6.967   4.470
   52POPE  H14Y 4963   5.683   7.041   4.587
   52POPE  C315 4964   5.586   6.931   4.436
   52POPE  H15X 4965   5.563   6.824   4.434
   52POPE  H15Y 4966   5.616   6.961   4.332
   52POPE  C316 4967   5.458   7.003   4.477
   52POPE  H16X 4968   5.484   7.107   4.502
   52POPE  H16Y 4969   5.408   6.956   4.564
   52POPE  H16Z 4970   5.385   7.007   4.393
   53POPE     N 4971   6.144   0.830   6.410
   53POPE   HN1 4972   6.118   0.781   6.321
   53POPE   HN2 4973   6.224   0.780   6.454
   53POPE   HN3 4974   6.062   0.839   6.474
   53POPE   C12 4975   6.187   0.964   6.359
   53POPE  H12A 4976   6.241   1.019   6.439
   53POPE  H12B 4977   6.095   1.019   6.330
   53POPE   C11 4978   6.272   0.938   6.236
   53POPE  H11A 4979   6.375   0.911   6.268
   53POPE  H11B 4980   6.278   1.030   6.173
   53POPE     P 4981   6.291   0.746   6.062
   53POPE   O13 4982   6.348   0.632   6.135
   53POPE   O14 4983   6.383   0.843   5.997
   53POPE   O11 4984   6.175   0.697   5.966
   53POPE   O12 4985   6.209   0.832   6.164
   53POPE    C1 4986   6.065   0.621   6.022
   53POPE    HA 4987   6.048   0.641   6.131
   53POPE    HB 4988   6.086   0.513   6.012
   53POPE    C2 4989   5.928   0.652   5.950
   53POPE    HS 4990   5.864   0.561   5.950
   53POPE   O21 4991   5.945   0.700   5.816
   53POPE   C21 4992   6.008   0.613   5.741
   53POPE   O22 4993   6.029   0.496   5.769
   53POPE   C22 4994   6.060   0.676   5.614
   53POPE   H2R 4995   6.075   0.784   5.628
   53POPE   H2S 4996   5.983   0.660   5.535
   53POPE    C3 4997   5.853   0.760   6.031
   53POPE    HX 4998   5.824   0.716   6.128
   53POPE    HY 4999   5.757   0.785   5.980
   53POPE   O31 5000   5.944   0.871   6.054
   53POPE   C31 5001   5.941   0.951   5.948
   53POPE   O32 5002   5.841   0.969   5.881
   53POPE   C32 5003   6.073   1.026   5.924
   53POPE   H2X 5004   6.142   1.003   6.006
   53POPE   H2Y 5005   6.046   1.133   5.931
   53POPE   C23 5006   6.196   0.615   5.573
   53POPE   H3R 5007   6.195   0.504   5.585
   53POPE   H3S 5008   6.277   0.656   5.637
   53POPE   C24 5009   6.223   0.642   5.426
   53POPE   H4R 5010   6.146   0.711   5.390
   53POPE   H4S 5011   6.197   0.549   5.376
   53POPE   C25 5012   6.365   0.689   5.393
   53POPE   H5R 5013   6.424   0.702   5.487
   53POPE   H5S 5014   6.359   0.790   5.348
   53POPE   C26 5015   6.443   0.598   5.296
   53POPE   H6R 5016   6.494   0.519   5.354
   53POPE   H6S 5017   6.524   0.658   5.248
   53POPE   C27 5018   6.356   0.530   5.188
   53POPE   H7R 5019   6.298   0.608   5.134
   53POPE   H7S 5020   6.285   0.459   5.236
   53POPE   C28 5021   6.426   0.437   5.089
   53POPE   H8R 5022   6.348   0.393   5.022
   53POPE   H8S 5023   6.471   0.353   5.146
   53POPE   C29 5024   6.531   0.512   5.012
   53POPE   H91 5025   6.620   0.537   5.072
   53POPE  C210 5026   6.527   0.550   4.883
   53POPE  H101 5027   6.611   0.609   4.846
   53POPE  C211 5028   6.421   0.530   4.778
   53POPE  H11R 5029   6.341   0.460   4.811
   53POPE  H11S 5030   6.466   0.488   4.686
   53POPE  C212 5031   6.363   0.669   4.747
   53POPE  H12R 5032   6.445   0.742   4.727
   53POPE  H12S 5033   6.311   0.703   4.839
   53POPE  C213 5034   6.265   0.679   4.629
   53POPE  H13R 5035   6.195   0.763   4.651
   53POPE  H13S 5036   6.205   0.586   4.623
   53POPE  C214 5037   6.333   0.710   4.494
   53POPE  H14R 5038   6.400   0.623   4.474
   53POPE  H14S 5039   6.398   0.799   4.503
   53POPE  C215 5040   6.234   0.725   4.376
   53POPE  H15R 5041   6.157   0.802   4.373
   53POPE  H15S 5042   6.159   0.650   4.400
   53POPE  C216 5043   6.298   0.708   4.238
   53POPE  H16R 5044   6.232   0.641   4.178
   53POPE  H16S 5045   6.396   0.656   4.252
   53POPE  C217 5046   6.331   0.829   4.149
   53POPE  H17R 5047   6.418   0.884   4.192
   53POPE  H17S 5048   6.245   0.899   4.142
   53POPE  C218 5049   6.366   0.779   4.009
   53POPE  H18R 5050   6.286   0.711   3.971
   53POPE  H18S 5051   6.460   0.720   4.016
   53POPE  H18T 5052   6.380   0.859   3.935
   53POPE   C33 5053   6.146   1.002   5.788
   53POPE   H3X 5054   6.078   0.958   5.715
   53POPE   H3Y 5055   6.223   0.922   5.803
   53POPE   C34 5056   6.217   1.129   5.734
   53POPE   H4X 5057   6.325   1.108   5.753
   53POPE   H4Y 5058   6.196   1.211   5.803
   53POPE   C35 5059   6.214   1.177   5.583
   53POPE   H5X 5060   6.257   1.092   5.529
   53POPE   H5Y 5061   6.286   1.258   5.593
   53POPE   C36 5062   6.119   1.273   5.502
   53POPE   H6X 5063   6.107   1.366   5.560
   53POPE   H6Y 5064   6.023   1.227   5.491
   53POPE   C37 5065   6.155   1.328   5.358
   53POPE   H7X 5066   6.257   1.302   5.328
   53POPE   H7Y 5067   6.154   1.439   5.362
   53POPE   C38 5068   6.056   1.291   5.244
   53POPE   H8X 5069   5.970   1.361   5.242
   53POPE   H8Y 5070   6.018   1.192   5.269
   53POPE   C39 5071   6.107   1.265   5.100
   53POPE   H9X 5072   6.216   1.246   5.101
   53POPE   H9Y 5073   6.087   1.354   5.036
   53POPE  C310 5074   6.047   1.138   5.037
   53POPE  H10X 5075   5.937   1.136   5.042
   53POPE  H10Y 5076   6.082   1.049   5.093
   53POPE  C311 5077   6.090   1.114   4.893
   53POPE  H11X 5078   6.056   1.013   4.862
   53POPE  H11Y 5079   6.202   1.112   4.891
   53POPE  C312 5080   6.037   1.217   4.793
   53POPE  H12X 5081   6.097   1.310   4.801
   53POPE  H12Y 5082   5.932   1.245   4.814
   53POPE  C313 5083   6.049   1.165   4.650
   53POPE  H13X 5084   6.026   1.245   4.577
   53POPE  H13Y 5085   5.982   1.080   4.632
   53POPE  C314 5086   6.189   1.111   4.630
   53POPE  H14X 5087   6.197   1.003   4.657
   53POPE  H14Y 5088   6.255   1.167   4.699
   53POPE  C315 5089   6.242   1.140   4.491
   53POPE  H15X 5090   6.351   1.145   4.508
   53POPE  H15Y 5091   6.207   1.236   4.452
   53POPE  C316 5092   6.220   1.031   4.394
   53POPE  H16X 5093   6.229   0.944   4.462
   53POPE  H16Y 5094   6.300   1.025   4.318
   53POPE  H16Z 5095   6.120   1.031   4.346
   54POPE     N 5096   0.723   1.740   6.157
   54POPE   HN1 5097   0.771   1.651   6.139
   54POPE   HN2 5098   0.791   1.819   6.155
   54POPE   HN3 5099   0.673   1.738   6.249
   54POPE   C12 5100   0.620   1.762   6.051
   54POPE  H12A 5101   0.661   1.731   5.953
   54POPE  H12B 5102   0.596   1.871   6.049
   54POPE   C11 5103   0.494   1.682   6.084
   54POPE  H11A 5104   0.510   1.574   6.062
   54POPE  H11B 5105   0.414   1.716   6.016
   54POPE     P 5106   0.401   1.831   6.278
   54POPE   O13 5107   0.520   1.906   6.328
   54POPE   O14 5108   0.295   1.801   6.376
   54POPE   O11 5109   0.340   1.908   6.155
   54POPE   O12 5110   0.457   1.695   6.221
   54POPE    C1 5111   0.197   1.909   6.141
   54POPE    HA 5112   0.156   2.008   6.169
   54POPE    HB 5113   0.142   1.835   6.206
   54POPE    C2 5114   0.152   1.876   5.996
   54POPE    HS 5115   0.041   1.875   5.996
   54POPE   O21 5116   0.204   1.749   5.954
   54POPE   C21 5117   0.141   1.648   6.006
   54POPE   O22 5118   0.044   1.654   6.080
   54POPE   C22 5119   0.200   1.516   5.959
   54POPE   H2R 5120   0.228   1.460   6.050
   54POPE   H2S 5121   0.288   1.531   5.894
   54POPE    C3 5122   0.194   1.983   5.891
   54POPE    HX 5123   0.164   2.079   5.938
   54POPE    HY 5124   0.129   1.970   5.801
   54POPE   O31 5125   0.335   1.991   5.856
   54POPE   C31 5126   0.369   1.903   5.762
   54POPE   O32 5127   0.294   1.822   5.711
   54POPE   C32 5128   0.515   1.914   5.720
   54POPE   H2X 5129   0.573   1.840   5.778
   54POPE   H2Y 5130   0.553   2.016   5.742
   54POPE   C23 5131   0.085   1.442   5.889
   54POPE   H3R 5132  -0.010   1.481   5.933
   54POPE   H3S 5133   0.088   1.333   5.907
   54POPE   C24 5134   0.064   1.472   5.743
   54POPE   H4R 5135   0.099   1.574   5.721
   54POPE   H4S 5136  -0.046   1.468   5.725
   54POPE   C25 5137   0.118   1.365   5.650
   54POPE   H5R 5138   0.053   1.274   5.655
   54POPE   H5S 5139   0.219   1.336   5.686
   54POPE   C26 5140   0.126   1.421   5.509
   54POPE   H6R 5141   0.027   1.461   5.478
   54POPE   H6S 5142   0.153   1.341   5.438
   54POPE   C27 5143   0.233   1.529   5.508
   54POPE   H7R 5144   0.313   1.499   5.581
   54POPE   H7S 5145   0.193   1.625   5.546
   54POPE   C28 5146   0.304   1.551   5.376
   54POPE   H8R 5147   0.369   1.463   5.357
   54POPE   H8S 5148   0.370   1.637   5.402
   54POPE   C29 5149   0.221   1.583   5.253
   54POPE   H91 5150   0.139   1.513   5.231
   54POPE  C210 5151   0.244   1.690   5.175
   54POPE  H101 5152   0.182   1.709   5.085
   54POPE  C211 5153   0.355   1.788   5.205
   54POPE  H11R 5154   0.449   1.735   5.214
   54POPE  H11S 5155   0.339   1.832   5.306
   54POPE  C212 5156   0.388   1.903   5.110
   54POPE  H12R 5157   0.460   1.968   5.164
   54POPE  H12S 5158   0.299   1.964   5.091
   54POPE  C213 5159   0.451   1.863   4.977
   54POPE  H13R 5160   0.382   1.799   4.918
   54POPE  H13S 5161   0.544   1.804   4.993
   54POPE  C214 5162   0.488   1.990   4.901
   54POPE  H14R 5163   0.456   2.075   4.966
   54POPE  H14S 5164   0.426   2.000   4.810
   54POPE  C215 5165   0.638   2.009   4.877
   54POPE  H15R 5166   0.694   1.993   4.972
   54POPE  H15S 5167   0.650   2.116   4.847
   54POPE  C216 5168   0.702   1.927   4.766
   54POPE  H16R 5169   0.710   1.820   4.796
   54POPE  H16S 5170   0.806   1.960   4.750
   54POPE  C217 5171   0.619   1.942   4.639
   54POPE  H17R 5172   0.610   2.049   4.609
   54POPE  H17S 5173   0.516   1.905   4.661
   54POPE  C218 5174   0.665   1.857   4.524
   54POPE  H18R 5175   0.741   1.903   4.460
   54POPE  H18S 5176   0.577   1.835   4.461
   54POPE  H18T 5177   0.706   1.761   4.558
   54POPE   C33 5178   0.525   1.879   5.569
   54POPE   H3X 5179   0.485   1.965   5.511
   54POPE   H3Y 5180   0.459   1.794   5.543
   54POPE   C34 5181   0.665   1.840   5.520
   54POPE   H4X 5182   0.698   1.748   5.574
   54POPE   H4Y 5183   0.737   1.921   5.546
   54POPE   C35 5184   0.672   1.813   5.369
   54POPE   H5X 5185   0.770   1.849   5.333
   54POPE   H5Y 5186   0.597   1.875   5.317
   54POPE   C36 5187   0.657   1.664   5.329
   54POPE   H6X 5188   0.558   1.631   5.362
   54POPE   H6Y 5189   0.726   1.598   5.383
   54POPE   C37 5190   0.673   1.635   5.179
   54POPE   H7X 5191   0.774   1.593   5.158
   54POPE   H7Y 5192   0.672   1.732   5.125
   54POPE   C38 5193   0.563   1.542   5.122
   54POPE   H8X 5194   0.523   1.582   5.027
   54POPE   H8Y 5195   0.478   1.539   5.193
   54POPE   C39 5196   0.605   1.396   5.109
   54POPE   H9X 5197   0.599   1.356   5.213
   54POPE   H9Y 5198   0.711   1.394   5.081
   54POPE  C310 5199   0.523   1.301   5.020
   54POPE  H10X 5200   0.417   1.332   5.019
   54POPE  H10Y 5201   0.531   1.201   5.070
   54POPE  C311 5202   0.575   1.273   4.879
   54POPE  H11X 5203   0.684   1.251   4.879
   54POPE  H11Y 5204   0.559   1.362   4.817
   54POPE  C312 5205   0.501   1.161   4.807
   54POPE  H12X 5206   0.392   1.170   4.829
   54POPE  H12Y 5207   0.537   1.062   4.843
   54POPE  C313 5208   0.519   1.174   4.655
   54POPE  H13X 5209   0.623   1.203   4.633
   54POPE  H13Y 5210   0.456   1.260   4.623
   54POPE  C314 5211   0.477   1.050   4.576
   54POPE  H14X 5212   0.385   1.008   4.621
   54POPE  H14Y 5213   0.555   0.972   4.584
   54POPE  C315 5214   0.446   1.084   4.429
   54POPE  H15X 5215   0.374   1.168   4.427
   54POPE  H15Y 5216   0.396   0.997   4.381
   54POPE  C316 5217   0.567   1.125   4.344
   54POPE  H16X 5218   0.638   1.186   4.405
   54POPE  H16Y 5219   0.536   1.187   4.257
   54POPE  H16Z 5220   0.621   1.036   4.307
   55POPE     N 5221   2.714   7.752   6.432
   55POPE   HN1 5222   2.810   7.754   6.389
   55POPE   HN2 5223   2.704   7.830   6.501
   55POPE   HN3 5224   2.695   7.659   6.473
   55POPE   C12 5225   2.619   7.773   6.318
   55POPE  H12A 5226   2.521   7.804   6.359
   55POPE  H12B 5227   2.608   7.677   6.263
   55POPE   C11 5228   2.679   7.876   6.224
   55POPE  H11A 5229   2.676   7.975   6.272
   55POPE  H11B 5230   2.617   7.885   6.131
   55POPE     P 5231   2.851   7.775   6.058
   55POPE   O13 5232   2.979   7.701   6.068
   55POPE   O14 5233   2.828   7.875   5.953
   55POPE   O11 5234   2.731   7.668   6.047
   55POPE   O12 5235   2.815   7.839   6.199
   55POPE    C1 5236   2.761   7.528   6.050
   55POPE    HA 5237   2.775   7.497   6.155
   55POPE    HB 5238   2.856   7.507   5.994
   55POPE    C2 5239   2.655   7.432   5.983
   55POPE    HS 5240   2.692   7.329   6.001
   55POPE   O21 5241   2.641   7.463   5.843
   55POPE   C21 5242   2.705   7.377   5.764
   55POPE   O22 5243   2.762   7.276   5.800
   55POPE   C22 5244   2.714   7.432   5.622
   55POPE   H2R 5245   2.801   7.385   5.573
   55POPE   H2S 5246   2.737   7.539   5.633
   55POPE    C3 5247   2.513   7.432   6.047
   55POPE    HX 5248   2.521   7.379   6.145
   55POPE    HY 5249   2.447   7.368   5.983
   55POPE   O31 5250   2.463   7.565   6.069
   55POPE   C31 5251   2.375   7.603   5.976
   55POPE   O32 5252   2.272   7.544   5.950
   55POPE   C32 5253   2.417   7.737   5.917
   55POPE   H2X 5254   2.520   7.761   5.950
   55POPE   H2Y 5255   2.346   7.809   5.963
   55POPE   C23 5256   2.586   7.405   5.540
   55POPE   H3R 5257   2.567   7.480   5.461
   55POPE   H3S 5258   2.496   7.404   5.604
   55POPE   C24 5259   2.603   7.274   5.467
   55POPE   H4R 5260   2.613   7.193   5.543
   55POPE   H4S 5261   2.697   7.275   5.407
   55POPE   C25 5262   2.485   7.244   5.376
   55POPE   H5R 5263   2.389   7.252   5.430
   55POPE   H5S 5264   2.504   7.141   5.342
   55POPE   C26 5265   2.464   7.331   5.255
   55POPE   H6R 5266   2.447   7.435   5.289
   55POPE   H6S 5267   2.370   7.297   5.205
   55POPE   C27 5268   2.577   7.316   5.154
   55POPE   H7R 5269   2.584   7.209   5.124
   55POPE   H7S 5270   2.674   7.345   5.200
   55POPE   C28 5271   2.551   7.400   5.030
   55POPE   H8R 5272   2.464   7.360   4.975
   55POPE   H8S 5273   2.639   7.383   4.965
   55POPE   C29 5274   2.531   7.547   5.060
   55POPE   H91 5275   2.494   7.573   5.160
   55POPE  C210 5276   2.560   7.645   4.975
   55POPE  H101 5277   2.546   7.750   5.005
   55POPE  C211 5278   2.617   7.621   4.838
   55POPE  H11R 5279   2.634   7.513   4.814
   55POPE  H11S 5280   2.715   7.672   4.831
   55POPE  C212 5281   2.518   7.670   4.734
   55POPE  H12R 5282   2.499   7.779   4.748
   55POPE  H12S 5283   2.421   7.616   4.749
   55POPE  C213 5284   2.566   7.647   4.590
   55POPE  H13R 5285   2.502   7.705   4.520
   55POPE  H13S 5286   2.555   7.539   4.564
   55POPE  C214 5287   2.712   7.691   4.576
   55POPE  H14R 5288   2.778   7.622   4.633
   55POPE  H14S 5289   2.721   7.792   4.622
   55POPE  C215 5290   2.764   7.697   4.432
   55POPE  H15R 5291   2.865   7.741   4.433
   55POPE  H15S 5292   2.700   7.763   4.371
   55POPE  C216 5293   2.772   7.557   4.372
   55POPE  H16R 5294   2.769   7.479   4.452
   55POPE  H16S 5295   2.869   7.544   4.318
   55POPE  C217 5296   2.658   7.537   4.273
   55POPE  H17R 5297   2.574   7.606   4.301
   55POPE  H17S 5298   2.618   7.434   4.279
   55POPE  C218 5299   2.703   7.571   4.132
   55POPE  H18R 5300   2.619   7.566   4.062
   55POPE  H18S 5301   2.782   7.505   4.093
   55POPE  H18T 5302   2.741   7.675   4.130
   55POPE   C33 5303   2.409   7.747   5.761
   55POPE   H3X 5304   2.364   7.844   5.731
   55POPE   H3Y 5305   2.340   7.668   5.725
   55POPE   C34 5306   2.545   7.734   5.689
   55POPE   H4X 5307   2.572   7.629   5.702
   55POPE   H4Y 5308   2.622   7.795   5.742
   55POPE   C35 5309   2.550   7.768   5.537
   55POPE   H5X 5310   2.536   7.877   5.524
   55POPE   H5Y 5311   2.468   7.716   5.483
   55POPE   C36 5312   2.686   7.732   5.471
   55POPE   H6X 5313   2.692   7.623   5.453
   55POPE   H6Y 5314   2.768   7.757   5.542
   55POPE   C37 5315   2.717   7.790   5.333
   55POPE   H7X 5316   2.716   7.901   5.340
   55POPE   H7Y 5317   2.636   7.759   5.262
   55POPE   C38 5318   2.853   7.741   5.280
   55POPE   H8X 5319   2.879   7.645   5.331
   55POPE   H8Y 5320   2.932   7.815   5.306
   55POPE   C39 5321   2.854   7.713   5.129
   55POPE   H9X 5322   2.805   7.798   5.077
   55POPE   H9Y 5323   2.793   7.622   5.110
   55POPE  C310 5324   2.993   7.689   5.066
   55POPE  H10X 5325   3.001   7.581   5.041
   55POPE  H10Y 5326   3.073   7.713   5.139
   55POPE  C311 5327   3.013   7.771   4.938
   55POPE  H11X 5328   3.038   7.876   4.966
   55POPE  H11Y 5329   2.916   7.773   4.883
   55POPE  C312 5330   3.119   7.716   4.841
   55POPE  H12X 5331   3.094   7.610   4.820
   55POPE  H12Y 5332   3.220   7.719   4.888
   55POPE  C313 5333   3.121   7.792   4.707
   55POPE  H13X 5334   3.171   7.891   4.719
   55POPE  H13Y 5335   3.015   7.812   4.679
   55POPE  C314 5336   3.182   7.716   4.589
   55POPE  H14X 5337   3.135   7.615   4.584
   55POPE  H14Y 5338   3.292   7.701   4.604
   55POPE  C315 5339   3.157   7.790   4.457
   55POPE  H15X 5340   3.220   7.881   4.453
   55POPE  H15Y 5341   3.051   7.825   4.458
   55POPE  C316 5342   3.178   7.706   4.331
   55POPE  H16X 5343   3.157   7.768   4.242
   55POPE  H16Y 5344   3.110   7.618   4.330
   55POPE  H16Z 5345   3.283   7.670   4.324
   56POPE     N 5346   3.590   3.926   2.312
   56POPE   HN1 5347   3.626   4.022   2.336
   56POPE   HN2 5348   3.576   3.932   2.208
   56POPE   HN3 5349   3.503   3.905   2.362
   56POPE   C12 5350   3.710   3.846   2.359
   56POPE  H12A 5351   3.709   3.748   2.309
   56POPE  H12B 5352   3.698   3.832   2.469
   56POPE   C11 5353   3.837   3.930   2.332
   56POPE  H11A 5354   3.875   3.906   2.230
   56POPE  H11B 5355   3.917   3.904   2.405
   56POPE     P 5356   3.895   4.193   2.331
   56POPE   O13 5357   3.921   4.218   2.188
   56POPE   O14 5358   4.010   4.174   2.421
   56POPE   O11 5359   3.792   4.297   2.386
   56POPE   O12 5360   3.802   4.067   2.340
   56POPE    C1 5361   3.698   4.267   2.489
   56POPE    HA 5362   3.723   4.176   2.550
   56POPE    HB 5363   3.598   4.252   2.443
   56POPE    C2 5364   3.688   4.388   2.584
   56POPE    HS 5365   3.729   4.477   2.530
   56POPE   O21 5366   3.753   4.359   2.710
   56POPE   C21 5367   3.863   4.431   2.728
   56POPE   O22 5368   3.911   4.508   2.649
   56POPE   C22 5369   3.910   4.419   2.873
   56POPE   H2R 5370   3.820   4.406   2.938
   56POPE   H2S 5371   3.958   4.516   2.897
   56POPE    C3 5372   3.543   4.425   2.617
   56POPE    HX 5373   3.493   4.460   2.523
   56POPE    HY 5374   3.554   4.510   2.688
   56POPE   O31 5375   3.471   4.316   2.680
   56POPE   C31 5376   3.354   4.365   2.723
   56POPE   O32 5377   3.284   4.441   2.659
   56POPE   C32 5378   3.358   4.353   2.876
   56POPE   H2X 5379   3.443   4.416   2.911
   56POPE   H2Y 5380   3.382   4.250   2.906
   56POPE   C23 5381   4.009   4.302   2.895
   56POPE   H3R 5382   4.044   4.306   3.001
   56POPE   H3S 5383   4.098   4.315   2.830
   56POPE   C24 5384   3.938   4.169   2.869
   56POPE   H4R 5385   3.892   4.173   2.767
   56POPE   H4S 5386   3.856   4.162   2.942
   56POPE   C25 5387   4.025   4.043   2.870
   56POPE   H5R 5388   4.060   4.019   2.972
   56POPE   H5S 5389   4.115   4.063   2.807
   56POPE   C26 5390   3.952   3.922   2.806
   56POPE   H6R 5391   4.026   3.841   2.792
   56POPE   H6S 5392   3.921   3.952   2.703
   56POPE   C27 5393   3.828   3.859   2.877
   56POPE   H7R 5394   3.850   3.751   2.892
   56POPE   H7S 5395   3.741   3.864   2.809
   56POPE   C28 5396   3.788   3.924   3.012
   56POPE   H8R 5397   3.727   4.014   2.989
   56POPE   H8S 5398   3.881   3.956   3.063
   56POPE   C29 5399   3.715   3.838   3.112
   56POPE   H91 5400   3.708   3.731   3.089
   56POPE  C210 5401   3.658   3.889   3.223
   56POPE  H101 5402   3.612   3.822   3.297
   56POPE  C211 5403   3.655   4.034   3.261
   56POPE  H11R 5404   3.613   4.094   3.178
   56POPE  H11S 5405   3.759   4.071   3.280
   56POPE  C212 5406   3.571   4.059   3.388
   56POPE  H12R 5407   3.476   4.000   3.385
   56POPE  H12S 5408   3.542   4.166   3.391
   56POPE  C213 5409   3.649   4.025   3.515
   56POPE  H13R 5410   3.745   4.082   3.513
   56POPE  H13S 5411   3.674   3.917   3.511
   56POPE  C214 5412   3.577   4.054   3.648
   56POPE  H14R 5413   3.468   4.062   3.630
   56POPE  H14S 5414   3.612   4.152   3.689
   56POPE  C215 5415   3.598   3.943   3.752
   56POPE  H15R 5416   3.703   3.944   3.786
   56POPE  H15S 5417   3.580   3.844   3.704
   56POPE  C216 5418   3.504   3.956   3.873
   56POPE  H16R 5419   3.419   3.885   3.863
   56POPE  H16S 5420   3.462   4.059   3.875
   56POPE  C217 5421   3.571   3.928   4.008
   56POPE  H17R 5422   3.498   3.951   4.088
   56POPE  H17S 5423   3.657   3.999   4.019
   56POPE  C218 5424   3.622   3.785   4.026
   56POPE  H18R 5425   3.538   3.712   4.019
   56POPE  H18S 5426   3.671   3.773   4.125
   56POPE  H18T 5427   3.696   3.759   3.947
   56POPE   C33 5428   3.230   4.403   2.945
   56POPE   H3X 5429   3.145   4.343   2.916
   56POPE   H3Y 5430   3.206   4.507   2.914
   56POPE   C34 5431   3.245   4.394   3.097
   56POPE   H4X 5432   3.276   4.493   3.131
   56POPE   H4Y 5433   3.324   4.319   3.119
   56POPE   C35 5434   3.119   4.365   3.178
   56POPE   H5X 5435   3.078   4.266   3.149
   56POPE   H5Y 5436   3.043   4.443   3.154
   56POPE   C36 5437   3.145   4.368   3.330
   56POPE   H6X 5438   3.052   4.338   3.382
   56POPE   H6Y 5439   3.170   4.472   3.362
   56POPE   C37 5440   3.260   4.275   3.375
   56POPE   H7X 5441   3.355   4.302   3.323
   56POPE   H7Y 5442   3.233   4.172   3.344
   56POPE   C38 5443   3.285   4.278   3.526
   56POPE   H8X 5444   3.316   4.177   3.558
   56POPE   H8Y 5445   3.191   4.302   3.579
   56POPE   C39 5446   3.397   4.375   3.566
   56POPE   H9X 5447   3.375   4.475   3.523
   56POPE   H9Y 5448   3.493   4.340   3.519
   56POPE  C310 5449   3.418   4.387   3.717
   56POPE  H10X 5450   3.516   4.435   3.736
   56POPE  H10Y 5451   3.420   4.286   3.764
   56POPE  C311 5452   3.309   4.474   3.782
   56POPE  H11X 5453   3.211   4.422   3.776
   56POPE  H11Y 5454   3.300   4.567   3.721
   56POPE  C312 5455   3.339   4.515   3.927
   56POPE  H12X 5456   3.318   4.624   3.935
   56POPE  H12Y 5457   3.447   4.501   3.950
   56POPE  C313 5458   3.251   4.444   4.032
   56POPE  H13X 5459   3.148   4.435   3.990
   56POPE  H13Y 5460   3.244   4.508   4.123
   56POPE  C314 5461   3.300   4.305   4.074
   56POPE  H14X 5462   3.348   4.253   3.988
   56POPE  H14Y 5463   3.209   4.248   4.104
   56POPE  C315 5464   3.394   4.303   4.196
   56POPE  H15X 5465   3.391   4.199   4.238
   56POPE  H15Y 5466   3.353   4.371   4.275
   56POPE  C316 5467   3.540   4.338   4.168
   56POPE  H16X 5468   3.550   4.444   4.137
   56POPE  H16Y 5469   3.580   4.274   4.086
   56POPE  H16Z 5470   3.602   4.322   4.259
   57POPE     N 5471   4.588   3.477   2.187
   57POPE   HN1 5472   4.605   3.505   2.287
   57POPE   HN2 5473   4.679   3.470   2.139
   57POPE   HN3 5474   4.536   3.558   2.144
   57POPE   C12 5475   4.499   3.355   2.182
   57POPE  H12A 5476   4.561   3.264   2.190
   57POPE  H12B 5477   4.443   3.357   2.087
   57POPE   C11 5478   4.397   3.363   2.296
   57POPE  H11A 5479   4.452   3.346   2.392
   57POPE  H11B 5480   4.321   3.282   2.287
   57POPE     P 5481   4.246   3.534   2.415
   57POPE   O13 5482   4.285   3.445   2.526
   57POPE   O14 5483   4.105   3.538   2.370
   57POPE   O11 5484   4.294   3.681   2.446
   57POPE   O12 5485   4.335   3.492   2.291
   57POPE    C1 5486   4.426   3.731   2.426
   57POPE    HA 5487   4.417   3.833   2.384
   57POPE    HB 5488   4.485   3.672   2.353
   57POPE    C2 5489   4.501   3.744   2.562
   57POPE    HS 5490   4.597   3.797   2.543
   57POPE   O21 5491   4.530   3.619   2.625
   57POPE   C21 5492   4.590   3.521   2.566
   57POPE   O22 5493   4.632   3.515   2.451
   57POPE   C22 5494   4.603   3.405   2.666
   57POPE   H2R 5495   4.710   3.400   2.697
   57POPE   H2S 5496   4.575   3.313   2.611
   57POPE    C3 5497   4.418   3.829   2.664
   57POPE    HX 5498   4.312   3.795   2.652
   57POPE    HY 5499   4.422   3.935   2.635
   57POPE   O31 5500   4.449   3.811   2.805
   57POPE   C31 5501   4.577   3.810   2.841
   57POPE   O32 5502   4.672   3.834   2.770
   57POPE   C32 5503   4.600   3.782   2.988
   57POPE   H2X 5504   4.649   3.871   3.032
   57POPE   H2Y 5505   4.674   3.699   2.991
   57POPE   C23 5506   4.511   3.422   2.790
   57POPE   H3R 5507   4.414   3.463   2.755
   57POPE   H3S 5508   4.555   3.496   2.860
   57POPE   C24 5509   4.478   3.290   2.861
   57POPE   H4R 5510   4.560   3.262   2.931
   57POPE   H4S 5511   4.469   3.210   2.785
   57POPE   C25 5512   4.345   3.300   2.936
   57POPE   H5R 5513   4.301   3.199   2.945
   57POPE   H5S 5514   4.274   3.356   2.871
   57POPE   C26 5515   4.358   3.365   3.075
   57POPE   H6R 5516   4.404   3.465   3.060
   57POPE   H6S 5517   4.430   3.305   3.136
   57POPE   C27 5518   4.228   3.383   3.156
   57POPE   H7R 5519   4.245   3.461   3.233
   57POPE   H7S 5520   4.204   3.293   3.215
   57POPE   C28 5521   4.105   3.423   3.074
   57POPE   H8R 5522   4.023   3.438   3.147
   57POPE   H8S 5523   4.075   3.339   3.006
   57POPE   C29 5524   4.128   3.548   2.995
   57POPE   H91 5525   4.162   3.531   2.892
   57POPE  C210 5526   4.109   3.675   3.033
   57POPE  H101 5527   4.134   3.752   2.958
   57POPE  C211 5528   4.059   3.737   3.161
   57POPE  H11R 5529   3.954   3.764   3.140
   57POPE  H11S 5530   4.114   3.834   3.170
   57POPE  C212 5531   4.052   3.681   3.304
   57POPE  H12R 5532   4.152   3.659   3.345
   57POPE  H12S 5533   3.996   3.586   3.307
   57POPE  C213 5534   3.984   3.791   3.388
   57POPE  H13R 5535   3.874   3.782   3.383
   57POPE  H13S 5536   4.008   3.889   3.339
   57POPE  C214 5537   4.030   3.810   3.533
   57POPE  H14R 5538   4.139   3.828   3.535
   57POPE  H14S 5539   4.008   3.720   3.595
   57POPE  C215 5540   3.961   3.934   3.591
   57POPE  H15R 5541   3.862   3.904   3.631
   57POPE  H15S 5542   3.944   4.007   3.508
   57POPE  C216 5543   4.041   4.008   3.698
   57POPE  H16R 5544   4.133   4.051   3.651
   57POPE  H16S 5545   4.073   3.936   3.777
   57POPE  C217 5546   3.959   4.121   3.762
   57POPE  H17R 5547   3.871   4.075   3.814
   57POPE  H17S 5548   3.919   4.188   3.683
   57POPE  C218 5549   4.039   4.203   3.863
   57POPE  H18R 5550   4.087   4.137   3.938
   57POPE  H18S 5551   3.972   4.275   3.916
   57POPE  H18T 5552   4.118   4.261   3.811
   57POPE   C33 5553   4.480   3.743   3.075
   57POPE   H3X 5554   4.414   3.671   3.021
   57POPE   H3Y 5555   4.419   3.833   3.099
   57POPE   C34 5556   4.534   3.678   3.204
   57POPE   H4X 5557   4.617   3.739   3.246
   57POPE   H4Y 5558   4.575   3.578   3.177
   57POPE   C35 5559   4.426   3.661   3.309
   57POPE   H5X 5560   4.447   3.575   3.376
   57POPE   H5Y 5561   4.332   3.640   3.254
   57POPE   C36 5562   4.405   3.787   3.393
   57POPE   H6X 5563   4.297   3.794   3.417
   57POPE   H6Y 5564   4.430   3.878   3.334
   57POPE   C37 5565   4.481   3.785   3.526
   57POPE   H7X 5566   4.591   3.791   3.507
   57POPE   H7Y 5567   4.460   3.689   3.577
   57POPE   C38 5568   4.436   3.901   3.614
   57POPE   H8X 5569   4.326   3.899   3.626
   57POPE   H8Y 5570   4.459   3.995   3.560
   57POPE   C39 5571   4.502   3.904   3.753
   57POPE   H9X 5572   4.459   3.990   3.810
   57POPE   H9Y 5573   4.611   3.922   3.742
   57POPE  C310 5574   4.479   3.777   3.835
   57POPE  H10X 5575   4.523   3.790   3.936
   57POPE  H10Y 5576   4.532   3.692   3.787
   57POPE  C311 5577   4.331   3.742   3.849
   57POPE  H11X 5578   4.279   3.737   3.751
   57POPE  H11Y 5579   4.282   3.824   3.908
   57POPE  C312 5580   4.308   3.609   3.919
   57POPE  H12X 5581   4.383   3.600   4.001
   57POPE  H12Y 5582   4.328   3.525   3.849
   57POPE  C313 5583   4.166   3.598   3.975
   57POPE  H13X 5584   4.097   3.587   3.888
   57POPE  H13Y 5585   4.138   3.693   4.026
   57POPE  C314 5586   4.147   3.482   4.072
   57POPE  H14X 5587   4.210   3.396   4.040
   57POPE  H14Y 5588   4.041   3.449   4.067
   57POPE  C315 5589   4.177   3.516   4.219
   57POPE  H15X 5590   4.173   3.422   4.278
   57POPE  H15Y 5591   4.095   3.582   4.257
   57POPE  C316 5592   4.310   3.586   4.246
   57POPE  H16X 5593   4.395   3.525   4.209
   57POPE  H16Y 5594   4.324   3.601   4.356
   57POPE  H16Z 5595   4.314   3.685   4.197
   58POPE     N 5596   5.155   5.131   2.400
   58POPE   HN1 5597   5.171   5.223   2.354
   58POPE   HN2 5598   5.235   5.100   2.457
   58POPE   HN3 5599   5.135   5.061   2.326
   58POPE   C12 5600   5.026   5.136   2.477
   58POPE  H12A 5601   5.044   5.193   2.569
   58POPE  H12B 5602   5.000   5.032   2.502
   58POPE   C11 5603   4.916   5.212   2.401
   58POPE  H11A 5604   4.947   5.319   2.395
   58POPE  H11B 5605   4.822   5.208   2.460
   58POPE     P 5606   4.840   5.024   2.235
   58POPE   O13 5607   4.967   4.950   2.251
   58POPE   O14 5608   4.780   5.033   2.100
   58POPE   O11 5609   4.736   5.002   2.352
   58POPE   O12 5610   4.893   5.168   2.268
   58POPE    C1 5611   4.747   4.914   2.464
   58POPE    HA 5612   4.852   4.893   2.495
   58POPE    HB 5613   4.702   4.816   2.437
   58POPE    C2 5614   4.666   4.969   2.586
   58POPE    HS 5615   4.570   5.004   2.540
   58POPE   O21 5616   4.738   5.076   2.657
   58POPE   C21 5617   4.652   5.167   2.707
   58POPE   O22 5618   4.533   5.166   2.690
   58POPE   C22 5619   4.721   5.280   2.783
   58POPE   H2R 5620   4.717   5.369   2.716
   58POPE   H2S 5621   4.827   5.257   2.799
   58POPE    C3 5622   4.628   4.858   2.689
   58POPE    HX 5623   4.548   4.792   2.648
   58POPE    HY 5624   4.585   4.915   2.775
   58POPE   O31 5625   4.740   4.778   2.731
   58POPE   C31 5626   4.735   4.743   2.859
   58POPE   O32 5627   4.635   4.730   2.926
   58POPE   C32 5628   4.876   4.740   2.912
   58POPE   H2X 5629   4.936   4.676   2.844
   58POPE   H2Y 5630   4.876   4.696   3.014
   58POPE   C23 5631   4.653   5.314   2.919
   58POPE   H3R 5632   4.550   5.353   2.903
   58POPE   H3S 5633   4.713   5.396   2.965
   58POPE   C24 5634   4.650   5.197   3.018
   58POPE   H4R 5635   4.741   5.135   3.004
   58POPE   H4S 5636   4.563   5.130   2.999
   58POPE   C25 5637   4.647   5.242   3.166
   58POPE   H5R 5638   4.544   5.268   3.197
   58POPE   H5S 5639   4.709   5.334   3.176
   58POPE   C26 5640   4.709   5.139   3.261
   58POPE   H6R 5641   4.699   5.174   3.367
   58POPE   H6S 5642   4.817   5.135   3.237
   58POPE   C27 5643   4.658   4.994   3.250
   58POPE   H7R 5644   4.684   4.953   3.150
   58POPE   H7S 5645   4.548   4.994   3.260
   58POPE   C28 5646   4.717   4.903   3.360
   58POPE   H8R 5647   4.682   4.799   3.343
   58POPE   H8S 5648   4.671   4.936   3.456
   58POPE   C29 5649   4.868   4.904   3.371
   58POPE   H91 5650   4.921   4.902   3.274
   58POPE  C210 5651   4.940   4.908   3.485
   58POPE  H101 5652   5.050   4.913   3.476
   58POPE  C211 5653   4.889   4.912   3.626
   58POPE  H11R 5654   4.841   5.010   3.645
   58POPE  H11S 5655   4.975   4.907   3.697
   58POPE  C212 5656   4.791   4.799   3.666
   58POPE  H12R 5657   4.849   4.714   3.707
   58POPE  H12S 5658   4.733   4.760   3.580
   58POPE  C213 5659   4.690   4.845   3.772
   58POPE  H13R 5660   4.746   4.896   3.854
   58POPE  H13S 5661   4.640   4.756   3.817
   58POPE  C214 5662   4.581   4.939   3.720
   58POPE  H14R 5663   4.501   4.881   3.668
   58POPE  H14S 5664   4.624   5.011   3.646
   58POPE  C215 5665   4.522   5.023   3.833
   58POPE  H15R 5666   4.438   5.086   3.798
   58POPE  H15S 5667   4.604   5.092   3.860
   58POPE  C216 5668   4.478   4.940   3.955
   58POPE  H16R 5669   4.563   4.878   3.991
   58POPE  H16S 5670   4.396   4.870   3.926
   58POPE  C217 5671   4.432   5.026   4.073
   58POPE  H17R 5672   4.438   4.970   4.169
   58POPE  H17S 5673   4.325   5.050   4.056
   58POPE  C218 5674   4.500   5.161   4.081
   58POPE  H18R 5675   4.606   5.161   4.046
   58POPE  H18S 5676   4.498   5.204   4.183
   58POPE  H18T 5677   4.444   5.226   4.011
   58POPE   C33 5678   4.926   4.885   2.913
   58POPE   H3X 5679   4.885   4.941   3.000
   58POPE   H3Y 5680   4.889   4.938   2.821
   58POPE   C34 5681   5.078   4.893   2.908
   58POPE   H4X 5682   5.119   4.792   2.888
   58POPE   H4Y 5683   5.117   4.926   3.007
   58POPE   C35 5684   5.124   4.985   2.795
   58POPE   H5X 5685   5.080   4.948   2.700
   58POPE   H5Y 5686   5.234   4.978   2.784
   58POPE   C36 5687   5.080   5.131   2.815
   58POPE   H6X 5688   4.972   5.135   2.796
   58POPE   H6Y 5689   5.132   5.194   2.740
   58POPE   C37 5690   5.112   5.194   2.950
   58POPE   H7X 5691   5.160   5.291   2.929
   58POPE   H7Y 5692   5.183   5.129   3.005
   58POPE   C38 5693   4.995   5.231   3.041
   58POPE   H8X 5694   4.946   5.139   3.078
   58POPE   H8Y 5695   4.923   5.290   2.982
   58POPE   C39 5696   5.042   5.320   3.157
   58POPE   H9X 5697   4.955   5.376   3.197
   58POPE   H9Y 5698   5.113   5.396   3.116
   58POPE  C310 5699   5.114   5.244   3.269
   58POPE  H10X 5700   5.206   5.300   3.296
   58POPE  H10Y 5701   5.145   5.143   3.232
   58POPE  C311 5702   5.033   5.226   3.397
   58POPE  H11X 5703   5.096   5.171   3.470
   58POPE  H11Y 5704   4.946   5.161   3.381
   58POPE  C312 5705   4.984   5.356   3.461
   58POPE  H12X 5706   4.906   5.402   3.397
   58POPE  H12Y 5707   5.070   5.426   3.470
   58POPE  C313 5708   4.925   5.331   3.599
   58POPE  H13X 5709   4.857   5.242   3.592
   58POPE  H13Y 5710   4.863   5.418   3.630
   58POPE  C314 5711   5.033   5.306   3.705
   58POPE  H14X 5712   5.077   5.404   3.733
   58POPE  H14Y 5713   5.116   5.246   3.662
   58POPE  C315 5714   4.983   5.232   3.829
   58POPE  H15X 5715   5.056   5.251   3.910
   58POPE  H15Y 5716   4.985   5.123   3.809
   58POPE  C316 5717   4.842   5.271   3.874
   58POPE  H16X 5718   4.824   5.380   3.860
   58POPE  H16Y 5719   4.826   5.246   3.981
   58POPE  H16Z 5720   4.767   5.215   3.814
   59POPE     N 5721   2.375   3.784   2.189
   59POPE   HN1 5722   2.342   3.882   2.182
   59POPE   HN2 5723   2.370   3.773   2.294
   59POPE   HN3 5724   2.474   3.773   2.155
   59POPE   C12 5725   2.271   3.694   2.126
   59POPE  H12A 5726   2.320   3.601   2.094
   59POPE  H12B 5727   2.230   3.747   2.038
   59POPE   C11 5728   2.151   3.666   2.219
   59POPE  H11A 5729   2.182   3.606   2.308
   59POPE  H11B 5730   2.078   3.603   2.164
   59POPE     P 5731   2.119   3.862   2.392
   59POPE   O13 5732   2.075   4.003   2.383
   59POPE   O14 5733   2.262   3.834   2.414
   59POPE   O11 5734   2.038   3.776   2.495
   59POPE   O12 5735   2.087   3.789   2.254
   59POPE    C1 5736   1.898   3.760   2.482
   59POPE    HA 5737   1.873   3.657   2.515
   59POPE    HB 5738   1.862   3.770   2.376
   59POPE    C2 5739   1.826   3.862   2.572
   59POPE    HS 5740   1.838   3.963   2.527
   59POPE   O21 5741   1.883   3.853   2.704
   59POPE   C21 5742   1.925   3.963   2.760
   59POPE   O22 5743   1.924   4.075   2.714
   59POPE   C22 5744   1.976   3.929   2.900
   59POPE   H2R 5745   1.903   3.862   2.949
   59POPE   H2S 5746   1.983   4.023   2.958
   59POPE    C3 5747   1.677   3.822   2.581
   59POPE    HX 5748   1.636   3.821   2.478
   59POPE    HY 5749   1.619   3.898   2.638
   59POPE   O31 5750   1.670   3.689   2.637
   59POPE   C31 5751   1.665   3.688   2.769
   59POPE   O32 5752   1.637   3.784   2.840
   59POPE   C32 5753   1.701   3.550   2.821
   59POPE   H2X 5754   1.802   3.524   2.784
   59POPE   H2Y 5755   1.629   3.478   2.780
   59POPE   C23 5756   2.114   3.864   2.886
   59POPE   H3R 5757   2.182   3.938   2.835
   59POPE   H3S 5758   2.108   3.775   2.819
   59POPE   C24 5759   2.182   3.822   3.016
   59POPE   H4R 5760   2.134   3.729   3.056
   59POPE   H4S 5761   2.172   3.901   3.093
   59POPE   C25 5762   2.329   3.797   2.983
   59POPE   H5R 5763   2.370   3.891   2.940
   59POPE   H5S 5764   2.335   3.720   2.902
   59POPE   C26 5765   2.421   3.755   3.097
   59POPE   H6R 5766   2.424   3.837   3.173
   59POPE   H6S 5767   2.521   3.742   3.050
   59POPE   C27 5768   2.391   3.623   3.168
   59POPE   H7R 5769   2.291   3.632   3.215
   59POPE   H7S 5770   2.464   3.611   3.250
   59POPE   C28 5771   2.404   3.502   3.074
   59POPE   H8R 5772   2.452   3.419   3.131
   59POPE   H8S 5773   2.475   3.526   2.992
   59POPE   C29 5774   2.272   3.454   3.020
   59POPE   H91 5775   2.254   3.470   2.912
   59POPE  C210 5776   2.175   3.403   3.098
   59POPE  H101 5777   2.081   3.369   3.052
   59POPE  C211 5778   2.187   3.389   3.248
   59POPE  H11R 5779   2.165   3.488   3.292
   59POPE  H11S 5780   2.291   3.363   3.278
   59POPE  C212 5781   2.092   3.291   3.319
   59POPE  H12R 5782   2.133   3.189   3.307
   59POPE  H12S 5783   1.993   3.292   3.270
   59POPE  C213 5784   2.074   3.323   3.470
   59POPE  H13R 5785   2.172   3.340   3.518
   59POPE  H13S 5786   2.027   3.234   3.518
   59POPE  C214 5787   1.980   3.442   3.498
   59POPE  H14R 5788   1.895   3.430   3.428
   59POPE  H14S 5789   2.030   3.535   3.469
   59POPE  C215 5790   1.924   3.452   3.642
   59POPE  H15R 5791   1.994   3.504   3.709
   59POPE  H15S 5792   1.921   3.349   3.681
   59POPE  C216 5793   1.781   3.512   3.657
   59POPE  H16R 5794   1.719   3.482   3.570
   59POPE  H16S 5795   1.783   3.623   3.656
   59POPE  C217 5796   1.705   3.467   3.784
   59POPE  H17R 5797   1.660   3.367   3.763
   59POPE  H17S 5798   1.621   3.538   3.802
   59POPE  C218 5799   1.790   3.456   3.911
   59POPE  H18R 5800   1.727   3.426   3.998
   59POPE  H18S 5801   1.840   3.552   3.934
   59POPE  H18T 5802   1.869   3.379   3.898
   59POPE   C33 5803   1.700   3.549   2.975
   59POPE   H3X 5804   1.659   3.452   3.010
   59POPE   H3Y 5805   1.633   3.627   3.018
   59POPE   C34 5806   1.840   3.565   3.033
   59POPE   H4X 5807   1.872   3.671   3.024
   59POPE   H4Y 5808   1.913   3.504   2.976
   59POPE   C35 5809   1.847   3.524   3.180
   59POPE   H5X 5810   1.950   3.541   3.217
   59POPE   H5Y 5811   1.833   3.414   3.186
   59POPE   C36 5812   1.743   3.595   3.269
   59POPE   H6X 5813   1.746   3.549   3.370
   59POPE   H6Y 5814   1.640   3.576   3.232
   59POPE   C37 5815   1.769   3.745   3.287
   59POPE   H7X 5816   1.709   3.779   3.375
   59POPE   H7Y 5817   1.732   3.801   3.199
   59POPE   C38 5818   1.919   3.772   3.311
   59POPE   H8X 5819   1.971   3.777   3.213
   59POPE   H8Y 5820   1.957   3.684   3.365
   59POPE   C39 5821   1.957   3.891   3.398
   59POPE   H9X 5822   1.886   3.899   3.483
   59POPE   H9Y 5823   1.948   3.982   3.336
   59POPE  C310 5824   2.102   3.888   3.452
   59POPE  H10X 5825   2.115   3.977   3.516
   59POPE  H10Y 5826   2.173   3.894   3.366
   59POPE  C311 5827   2.146   3.771   3.541
   59POPE  H11X 5828   2.248   3.791   3.579
   59POPE  H11Y 5829   2.154   3.680   3.478
   59POPE  C312 5830   2.054   3.750   3.662
   59POPE  H12X 5831   2.099   3.673   3.728
   59POPE  H12Y 5832   1.957   3.713   3.623
   59POPE  C313 5833   2.026   3.874   3.747
   59POPE  H13X 5834   1.969   3.947   3.685
   59POPE  H13Y 5835   2.122   3.921   3.776
   59POPE  C314 5836   1.942   3.845   3.873
   59POPE  H14X 5837   1.860   3.774   3.848
   59POPE  H14Y 5838   1.896   3.940   3.907
   59POPE  C315 5839   2.027   3.790   3.988
   59POPE  H15X 5840   2.107   3.864   4.011
   59POPE  H15Y 5841   2.078   3.696   3.955
   59POPE  C316 5842   1.949   3.761   4.117
   59POPE  H16X 5843   1.898   3.854   4.152
   59POPE  H16Y 5844   2.017   3.726   4.197
   59POPE  H16Z 5845   1.871   3.683   4.100
   60POPE     N 5846   5.065   2.308   2.317
   60POPE   HN1 5847   5.110   2.274   2.405
   60POPE   HN2 5848   5.041   2.409   2.327
   60POPE   HN3 5849   4.975   2.254   2.303
   60POPE   C12 5850   5.169   2.287   2.208
   60POPE  H12A 5851   5.127   2.327   2.113
   60POPE  H12B 5852   5.185   2.178   2.198
   60POPE   C11 5853   5.304   2.356   2.238
   60POPE  H11A 5854   5.292   2.467   2.238
   60POPE  H11B 5855   5.376   2.331   2.156
   60POPE     P 5856   5.509   2.302   2.401
   60POPE   O13 5857   5.561   2.436   2.435
   60POPE   O14 5858   5.576   2.221   2.296
   60POPE   O11 5859   5.491   2.216   2.534
   60POPE   O12 5860   5.354   2.313   2.363
   60POPE    C1 5861   5.361   2.211   2.593
   60POPE    HA 5862   5.295   2.144   2.534
   60POPE    HB 5863   5.316   2.313   2.599
   60POPE    C2 5864   5.371   2.158   2.737
   60POPE    HS 5865   5.475   2.181   2.770
   60POPE   O21 5866   5.335   2.018   2.733
   60POPE   C21 5867   5.420   1.944   2.801
   60POPE   O22 5868   5.517   1.986   2.862
   60POPE   C22 5869   5.380   1.799   2.797
   60POPE   H2R 5870   5.442   1.751   2.718
   60POPE   H2S 5871   5.274   1.788   2.769
   60POPE    C3 5872   5.274   2.234   2.832
   60POPE    HX 5873   5.172   2.228   2.788
   60POPE    HY 5874   5.307   2.340   2.828
   60POPE   O31 5875   5.277   2.181   2.967
   60POPE   C31 5876   5.221   2.266   3.054
   60POPE   O32 5877   5.171   2.372   3.022
   60POPE   C32 5878   5.234   2.217   3.199
   60POPE   H2X 5879   5.335   2.252   3.232
   60POPE   H2Y 5880   5.237   2.107   3.200
   60POPE   C23 5881   5.413   1.731   2.932
   60POPE   H3R 5882   5.522   1.744   2.950
   60POPE   H3S 5883   5.393   1.622   2.921
   60POPE   C24 5884   5.340   1.782   3.059
   60POPE   H4R 5885   5.230   1.769   3.049
   60POPE   H4S 5886   5.363   1.889   3.076
   60POPE   C25 5887   5.394   1.698   3.176
   60POPE   H5R 5888   5.504   1.702   3.161
   60POPE   H5S 5889   5.357   1.594   3.163
   60POPE   C26 5890   5.376   1.740   3.323
   60POPE   H6R 5891   5.366   1.646   3.383
   60POPE   H6S 5892   5.285   1.800   3.334
   60POPE   C27 5893   5.500   1.811   3.381
   60POPE   H7R 5894   5.560   1.857   3.299
   60POPE   H7S 5895   5.563   1.731   3.425
   60POPE   C28 5896   5.478   1.916   3.490
   60POPE   H8R 5897   5.571   1.976   3.496
   60POPE   H8S 5898   5.476   1.856   3.586
   60POPE   C29 5899   5.349   1.993   3.500
   60POPE   H91 5900   5.265   1.925   3.487
   60POPE  C210 5901   5.320   2.124   3.511
   60POPE  H101 5902   5.221   2.147   3.559
   60POPE  C211 5903   5.410   2.240   3.533
   60POPE  H11R 5904   5.385   2.326   3.464
   60POPE  H11S 5905   5.507   2.208   3.495
   60POPE  C212 5906   5.433   2.288   3.677
   60POPE  H12R 5907   5.403   2.394   3.689
   60POPE  H12S 5908   5.543   2.286   3.689
   60POPE  C213 5909   5.372   2.202   3.790
   60POPE  H13R 5910   5.452   2.143   3.840
   60POPE  H13S 5911   5.298   2.127   3.755
   60POPE  C214 5912   5.303   2.286   3.898
   60POPE  H14R 5913   5.209   2.330   3.855
   60POPE  H14S 5914   5.368   2.370   3.930
   60POPE  C215 5915   5.271   2.198   4.019
   60POPE  H15R 5916   5.344   2.222   4.099
   60POPE  H15S 5917   5.281   2.091   3.993
   60POPE  C216 5918   5.129   2.220   4.069
   60POPE  H16R 5919   5.057   2.195   3.988
   60POPE  H16S 5920   5.117   2.328   4.089
   60POPE  C217 5921   5.093   2.133   4.191
   60POPE  H17R 5922   5.071   2.031   4.152
   60POPE  H17S 5923   4.999   2.171   4.236
   60POPE  C218 5924   5.196   2.117   4.304
   60POPE  H18R 5925   5.300   2.109   4.266
   60POPE  H18S 5926   5.175   2.023   4.360
   60POPE  H18T 5927   5.190   2.201   4.375
   60POPE   C33 5928   5.127   2.274   3.300
   60POPE   H3X 5929   5.075   2.361   3.253
   60POPE   H3Y 5930   5.179   2.313   3.389
   60POPE   C34 5931   5.017   2.173   3.345
   60POPE   H4X 5932   5.053   2.069   3.328
   60POPE   H4Y 5933   4.937   2.195   3.270
   60POPE   C35 5934   4.950   2.187   3.486
   60POPE   H5X 5935   4.844   2.214   3.475
   60POPE   H5Y 5936   5.002   2.272   3.536
   60POPE   C36 5937   4.966   2.063   3.582
   60POPE   H6X 5938   5.025   2.100   3.669
   60POPE   H6Y 5939   5.030   2.003   3.517
   60POPE   C37 5940   4.846   1.977   3.643
   60POPE   H7X 5941   4.766   1.999   3.569
   60POPE   H7Y 5942   4.809   2.022   3.737
   60POPE   C38 5943   4.840   1.815   3.660
   60POPE   H8X 5944   4.848   1.768   3.562
   60POPE   H8Y 5945   4.729   1.812   3.679
   60POPE   C39 5946   4.874   1.709   3.779
   60POPE   H9X 5947   4.796   1.632   3.753
   60POPE   H9Y 5948   4.833   1.752   3.872
   60POPE  C310 5949   4.991   1.598   3.822
   60POPE  H10X 5950   4.952   1.499   3.791
   60POPE  H10Y 5951   4.954   1.594   3.924
   60POPE  C311 5952   5.159   1.568   3.815
   60POPE  H11X 5953   5.171   1.533   3.712
   60POPE  H11Y 5954   5.169   1.476   3.873
   60POPE  C312 5955   5.311   1.636   3.840
   60POPE  H12X 5956   5.337   1.680   3.742
   60POPE  H12Y 5957   5.380   1.550   3.843
   60POPE  C313 5958   5.375   1.752   3.935
   60POPE  H13X 5959   5.309   1.837   3.949
   60POPE  H13Y 5960   5.457   1.790   3.869
   60POPE  C314 5961   5.455   1.747   4.073
   60POPE  H14X 5962   5.532   1.828   4.063
   60POPE  H14Y 5963   5.513   1.656   4.094
   60POPE  C315 5964   5.373   1.801   4.195
   60POPE  H15X 5965   5.288   1.734   4.207
   60POPE  H15Y 5966   5.334   1.902   4.168
   60POPE  C316 5967   5.430   1.809   4.338
   60POPE  H16X 5968   5.447   1.913   4.371
   60POPE  H16Y 5969   5.523   1.751   4.348
   60POPE  H16Z 5970   5.354   1.769   4.410
   61POPE     N 5971   2.111   5.320   2.453
   61POPE   HN1 5972   2.213   5.340   2.444
   61POPE   HN2 5973   2.077   5.355   2.545
   61POPE   HN3 5974   2.092   5.216   2.449
   61POPE   C12 5975   2.034   5.384   2.341
   61POPE  H12A 5976   2.094   5.373   2.248
   61POPE  H12B 5977   2.019   5.491   2.364
   61POPE   C11 5978   1.902   5.312   2.326
   61POPE  H11A 5979   1.842   5.359   2.245
   61POPE  H11B 5980   1.843   5.321   2.420
   61POPE     P 5981   1.815   5.072   2.292
   61POPE   O13 5982   1.819   5.002   2.162
   61POPE   O14 5983   1.693   5.148   2.325
   61POPE   O11 5984   1.849   4.980   2.413
   61POPE   O12 5985   1.933   5.177   2.295
   61POPE    C1 5986   1.977   4.916   2.423
   61POPE    HA 5987   2.045   4.938   2.338
   61POPE    HB 5988   1.958   4.806   2.419
   61POPE    C2 5989   2.046   4.950   2.558
   61POPE    HS 5990   2.010   4.875   2.629
   61POPE   O21 5991   2.014   5.086   2.601
   61POPE   C21 5992   1.903   5.093   2.679
   61POPE   O22 5993   1.841   5.000   2.724
   61POPE   C22 5994   1.873   5.239   2.716
   61POPE   H2R 5995   1.797   5.273   2.643
   61POPE   H2S 5996   1.965   5.298   2.702
   61POPE    C3 5997   2.202   4.933   2.555
   61POPE    HX 5998   2.247   5.033   2.541
   61POPE    HY 5999   2.227   4.873   2.465
   61POPE   O31 6000   2.253   4.862   2.672
   61POPE   C31 6001   2.356   4.913   2.740
   61POPE   O32 6002   2.414   5.016   2.710
   61POPE   C32 6003   2.392   4.822   2.860
   61POPE   H2X 6004   2.357   4.878   2.948
   61POPE   H2Y 6005   2.502   4.819   2.870
   61POPE   C23 6006   1.816   5.263   2.860
   61POPE   H3R 6007   1.715   5.218   2.867
   61POPE   H3S 6008   1.805   5.373   2.873
   61POPE   C24 6009   1.903   5.210   2.977
   61POPE   H4R 6010   2.010   5.225   2.950
   61POPE   H4S 6011   1.884   5.101   2.988
   61POPE   C25 6012   1.882   5.277   3.116
   61POPE   H5R 6013   1.871   5.387   3.102
   61POPE   H5S 6014   1.975   5.262   3.175
   61POPE   C26 6015   1.764   5.227   3.203
   61POPE   H6R 6016   1.670   5.240   3.144
   61POPE   H6S 6017   1.757   5.294   3.292
   61POPE   C27 6018   1.771   5.082   3.255
   61POPE   H7R 6019   1.772   5.015   3.166
   61POPE   H7S 6020   1.678   5.059   3.310
   61POPE   C28 6021   1.893   5.046   3.345
   61POPE   H8R 6022   1.983   5.088   3.296
   61POPE   H8S 6023   1.904   4.936   3.341
   61POPE   C29 6024   1.893   5.085   3.491
   61POPE   H91 6025   1.795   5.076   3.541
   61POPE  C210 6026   1.999   5.125   3.565
   61POPE  H101 6027   1.982   5.152   3.670
   61POPE  C211 6028   2.143   5.141   3.521
   61POPE  H11R 6029   2.165   5.250   3.514
   61POPE  H11S 6030   2.162   5.100   3.419
   61POPE  C212 6031   2.250   5.082   3.618
   61POPE  H12R 6032   2.208   5.070   3.720
   61POPE  H12S 6033   2.331   5.157   3.626
   61POPE  C213 6034   2.317   4.951   3.569
   61POPE  H13R 6035   2.356   4.973   3.467
   61POPE  H13S 6036   2.240   4.872   3.560
   61POPE  C214 6037   2.440   4.895   3.644
   61POPE  H14R 6038   2.531   4.928   3.591
   61POPE  H14S 6039   2.440   4.784   3.633
   61POPE  C215 6040   2.449   4.927   3.795
   61POPE  H15R 6041   2.377   4.856   3.838
   61POPE  H15S 6042   2.405   5.025   3.818
   61POPE  C216 6043   2.580   4.892   3.871
   61POPE  H16R 6044   2.616   4.802   3.819
   61POPE  H16S 6045   2.549   4.865   3.974
   61POPE  C217 6046   2.702   4.986   3.885
   61POPE  H17R 6047   2.715   5.053   3.800
   61POPE  H17S 6048   2.794   4.924   3.879
   61POPE  C218 6049   2.716   5.067   4.016
   61POPE  H18R 6050   2.619   5.081   4.067
   61POPE  H18S 6051   2.761   5.166   3.996
   61POPE  H18T 6052   2.786   5.017   4.086
   61POPE   C33 6053   2.328   4.678   2.865
   61POPE   H3X 6054   2.233   4.680   2.811
   61POPE   H3Y 6055   2.394   4.610   2.810
   61POPE   C34 6056   2.289   4.638   3.010
   61POPE   H4X 6057   2.237   4.732   3.032
   61POPE   H4Y 6058   2.378   4.628   3.074
   61POPE   C35 6059   2.177   4.542   3.064
   61POPE   H5X 6060   2.189   4.435   3.042
   61POPE   H5Y 6061   2.082   4.569   3.017
   61POPE   C36 6062   2.174   4.565   3.219
   61POPE   H6X 6063   2.178   4.673   3.239
   61POPE   H6Y 6064   2.271   4.525   3.256
   61POPE   C37 6065   2.064   4.508   3.312
   61POPE   H7X 6066   2.123   4.466   3.396
   61POPE   H7Y 6067   2.006   4.424   3.270
   61POPE   C38 6068   1.978   4.612   3.389
   61POPE   H8X 6069   1.873   4.607   3.352
   61POPE   H8Y 6070   2.013   4.715   3.367
   61POPE   C39 6071   1.978   4.591   3.543
   61POPE   H9X 6072   2.008   4.487   3.566
   61POPE   H9Y 6073   1.875   4.605   3.582
   61POPE  C310 6074   2.068   4.685   3.624
   61POPE  H10X 6075   2.053   4.788   3.585
   61POPE  H10Y 6076   2.174   4.656   3.607
   61POPE  C311 6077   2.039   4.690   3.777
   61POPE  H11X 6078   2.036   4.587   3.819
   61POPE  H11Y 6079   1.939   4.736   3.792
   61POPE  C312 6080   2.145   4.772   3.853
   61POPE  H12X 6081   2.168   4.861   3.789
   61POPE  H12Y 6082   2.236   4.709   3.861
   61POPE  C313 6083   2.113   4.829   3.993
   61POPE  H13X 6084   2.107   4.746   4.067
   61POPE  H13Y 6085   2.017   4.883   3.993
   61POPE  C314 6086   2.223   4.927   4.038
   61POPE  H14X 6087   2.233   5.010   3.963
   61POPE  H14Y 6088   2.320   4.871   4.040
   61POPE  C315 6089   2.210   4.989   4.176
   61POPE  H15X 6090   2.309   5.037   4.197
   61POPE  H15Y 6091   2.194   4.907   4.250
   61POPE  C316 6092   2.105   5.098   4.198
   61POPE  H16X 6093   2.004   5.055   4.190
   61POPE  H16Y 6094   2.115   5.180   4.123
   61POPE  H16Z 6095   2.115   5.142   4.299
   62POPE     N 6096   6.406   4.377   2.280
   62POPE   HN1 6097   6.373   4.421   2.370
   62POPE   HN2 6098   6.385   4.276   2.273
   62POPE   HN3 6099   6.506   4.402   2.264
   62POPE   C12 6100   6.322   4.445   2.176
   62POPE  H12A 6101   6.216   4.416   2.192
   62POPE  H12B 6102   6.355   4.412   2.076
   62POPE   C11 6103   6.342   4.595   2.197
   62POPE  H11A 6104   6.283   4.650   2.120
   62POPE  H11B 6105   6.448   4.621   2.175
   62POPE     P 6106   6.161   4.668   2.367
   62POPE   O13 6107   6.093   4.554   2.431
   62POPE   O14 6108   6.098   4.716   2.242
   62POPE   O11 6109   6.178   4.789   2.468
   62POPE   O12 6110   6.311   4.629   2.332
   62POPE    C1 6111   6.296   4.790   2.550
   62POPE    HA 6112   6.284   4.868   2.629
   62POPE    HB 6113   6.385   4.819   2.491
   62POPE    C2 6114   6.322   4.655   2.624
   62POPE    HS 6115   6.329   4.572   2.551
   62POPE   O21 6116   6.217   4.631   2.719
   62POPE   C21 6117   6.228   4.512   2.772
   62POPE   O22 6118   6.292   4.419   2.725
   62POPE   C22 6119   6.159   4.512   2.909
   62POPE   H2R 6120   6.056   4.473   2.897
   62POPE   H2S 6121   6.151   4.617   2.944
   62POPE    C3 6122   6.460   4.659   2.692
   62POPE    HX 6123   6.536   4.686   2.614
   62POPE    HY 6124   6.488   4.561   2.735
   62POPE   O31 6125   6.449   4.758   2.793
   62POPE   C31 6126   6.562   4.797   2.842
   62POPE   O32 6127   6.672   4.757   2.809
   62POPE   C32 6128   6.533   4.901   2.950
   62POPE   H2X 6129   6.587   4.994   2.924
   62POPE   H2Y 6130   6.571   4.861   3.046
   62POPE   C23 6131   6.239   4.428   3.011
   62POPE   H3R 6132   6.338   4.398   2.969
   62POPE   H3S 6133   6.186   4.334   3.035
   62POPE   C24 6134   6.269   4.502   3.141
   62POPE   H4R 6135   6.302   4.429   3.217
   62POPE   H4S 6136   6.177   4.551   3.180
   62POPE   C25 6137   6.379   4.606   3.117
   62POPE   H5R 6138   6.331   4.684   3.055
   62POPE   H5S 6139   6.462   4.570   3.054
   62POPE   C26 6140   6.432   4.670   3.244
   62POPE   H6R 6141   6.342   4.706   3.296
   62POPE   H6S 6142   6.499   4.755   3.220
   62POPE   C27 6143   6.500   4.579   3.346
   62POPE   H7R 6144   6.585   4.527   3.297
   62POPE   H7S 6145   6.427   4.503   3.382
   62POPE   C28 6146   6.555   4.658   3.466
   62POPE   H8R 6147   6.627   4.731   3.427
   62POPE   H8S 6148   6.613   4.591   3.532
   62POPE   C29 6149   6.447   4.731   3.540
   62POPE   H91 6150   6.425   4.830   3.498
   62POPE  C210 6151   6.380   4.688   3.648
   62POPE  H101 6152   6.304   4.752   3.695
   62POPE  C211 6153   6.402   4.555   3.712
   62POPE  H11R 6154   6.431   4.568   3.819
   62POPE  H11S 6155   6.486   4.503   3.663
   62POPE  C212 6156   6.280   4.463   3.700
   62POPE  H12R 6157   6.308   4.363   3.743
   62POPE  H12S 6158   6.258   4.446   3.592
   62POPE  C213 6159   6.154   4.513   3.771
   62POPE  H13R 6160   6.081   4.430   3.776
   62POPE  H13S 6161   6.108   4.595   3.711
   62POPE  C214 6162   6.179   4.566   3.913
   62POPE  H14R 6163   6.080   4.597   3.952
   62POPE  H14S 6164   6.242   4.657   3.911
   62POPE  C215 6165   6.242   4.462   4.008
   62POPE  H15R 6166   6.350   4.487   4.023
   62POPE  H15S 6167   6.237   4.360   3.964
   62POPE  C216 6168   6.172   4.459   4.143
   62POPE  H16R 6169   6.168   4.563   4.182
   62POPE  H16S 6170   6.230   4.396   4.214
   62POPE  C217 6171   6.029   4.403   4.134
   62POPE  H17R 6172   6.015   4.326   4.213
   62POPE  H17S 6173   6.018   4.357   4.035
   62POPE  C218 6174   5.923   4.511   4.152
   62POPE  H18R 6175   5.826   4.466   4.182
   62POPE  H18S 6176   5.908   4.569   4.059
   62POPE  H18T 6177   5.957   4.580   4.230
   62POPE   C33 6178   6.383   4.934   2.966
   62POPE   H3X 6179   6.318   4.845   2.961
   62POPE   H3Y 6180   6.350   4.992   2.878
   62POPE   C34 6181   6.352   5.006   3.098
   62POPE   H4X 6182   6.401   5.105   3.096
   62POPE   H4Y 6183   6.397   4.950   3.183
   62POPE   C35 6184   6.201   5.019   3.119
   62POPE   H5X 6185   6.154   5.039   3.020
   62POPE   H5Y 6186   6.176   5.104   3.185
   62POPE   C36 6187   6.140   4.894   3.183
   62POPE   H6X 6188   6.180   4.804   3.132
   62POPE   H6Y 6189   6.031   4.891   3.163
   62POPE   C37 6190   6.168   4.883   3.334
   62POPE   H7X 6191   6.277   4.871   3.347
   62POPE   H7Y 6192   6.116   4.792   3.373
   62POPE   C38 6193   6.145   5.001   3.430
   62POPE   H8X 6194   6.041   5.035   3.431
   62POPE   H8Y 6195   6.210   5.088   3.402
   62POPE   C39 6196   6.177   4.956   3.572
   62POPE   H9X 6197   6.286   4.937   3.581
   62POPE   H9Y 6198   6.123   4.860   3.590
   62POPE  C310 6199   6.141   5.055   3.681
   62POPE  H10X 6200   6.055   5.118   3.650
   62POPE  H10Y 6201   6.228   5.122   3.699
   62POPE  C311 6202   6.106   4.981   3.809
   62POPE  H11X 6203   6.187   4.909   3.834
   62POPE  H11Y 6204   6.015   4.920   3.790
   62POPE  C312 6205   6.084   5.079   3.924
   62POPE  H12X 6206   5.989   5.135   3.908
   62POPE  H12Y 6207   6.167   5.152   3.922
   62POPE  C313 6208   6.087   5.014   4.062
   62POPE  H13X 6209   6.046   5.085   4.137
   62POPE  H13Y 6210   6.194   4.997   4.085
   62POPE  C314 6211   6.018   4.878   4.075
   62POPE  H14X 6212   6.026   4.846   4.181
   62POPE  H14Y 6213   6.075   4.802   4.018
   62POPE  C315 6214   5.871   4.872   4.029
   62POPE  H15X 6215   5.827   4.777   4.067
   62POPE  H15Y 6216   5.871   4.865   3.919
   62POPE  C316 6217   5.778   4.988   4.067
   62POPE  H16X 6218   5.673   4.952   4.064
   62POPE  H16Y 6219   5.789   5.071   3.994
   62POPE  H16Z 6220   5.799   5.027   4.168
   63POPE     N 6221   6.410   3.283   2.114
   63POPE   HN1 6222   6.434   3.295   2.014
   63POPE   HN2 6223   6.353   3.363   2.146
   63POPE   HN3 6224   6.499   3.280   2.169
   63POPE   C12 6225   6.343   3.150   2.143
   63POPE  H12A 6226   6.389   3.075   2.076
   63POPE  H12B 6227   6.235   3.160   2.119
   63POPE   C11 6228   6.366   3.104   2.288
   63POPE  H11A 6229   6.318   3.004   2.302
   63POPE  H11B 6230   6.317   3.174   2.360
   63POPE     P 6231   6.569   3.089   2.455
   63POPE   O13 6232   6.714   3.081   2.439
   63POPE   O14 6233   6.498   2.987   2.535
   63POPE   O11 6234   6.530   3.235   2.499
   63POPE   O12 6235   6.506   3.092   2.308
   63POPE    C1 6236   6.557   3.343   2.409
   63POPE    HA 6237   6.466   3.371   2.353
   63POPE    HB 6238   6.636   3.319   2.333
   63POPE    C2 6239   6.603   3.471   2.484
   63POPE    HS 6240   6.628   3.550   2.409
   63POPE   O21 6241   6.718   3.443   2.568
   63POPE   C21 6242   6.828   3.414   2.494
   63POPE   O22 6243   6.835   3.423   2.373
   63POPE   C22 6244   6.948   3.382   2.588
   63POPE   H2R 6245   6.946   3.471   2.650
   63POPE   H2S 6246   7.043   3.387   2.532
   63POPE    C3 6247   6.479   3.525   2.567
   63POPE    HX 6248   6.392   3.519   2.497
   63POPE    HY 6249   6.497   3.633   2.585
   63POPE   O31 6250   6.451   3.462   2.693
   63POPE   C31 6251   6.335   3.402   2.715
   63POPE   O32 6252   6.238   3.398   2.642
   63POPE   C32 6253   6.347   3.333   2.851
   63POPE   H2X 6254   6.247   3.297   2.883
   63POPE   H2Y 6255   6.387   3.404   2.925
   63POPE   C23 6256   6.939   3.252   2.676
   63POPE   H3R 6257   7.015   3.178   2.646
   63POPE   H3S 6258   6.839   3.208   2.651
   63POPE   C24 6259   6.934   3.270   2.831
   63POPE   H4R 6260   6.862   3.191   2.863
   63POPE   H4S 6261   6.881   3.365   2.847
   63POPE   C25 6262   7.054   3.256   2.932
   63POPE   H5R 6263   7.148   3.303   2.900
   63POPE   H5S 6264   7.072   3.145   2.935
   63POPE   C26 6265   7.007   3.296   3.079
   63POPE   H6R 6266   6.962   3.204   3.119
   63POPE   H6S 6267   6.933   3.367   3.044
   63POPE   C27 6268   7.050   3.404   3.186
   63POPE   H7R 6269   7.101   3.488   3.140
   63POPE   H7S 6270   7.132   3.366   3.247
   63POPE   C28 6271   6.947   3.454   3.307
   63POPE   H8R 6272   7.033   3.513   3.347
   63POPE   H8S 6273   6.946   3.368   3.369
   63POPE   C29 6274   6.844   3.566   3.356
   63POPE   H91 6275   6.902   3.658   3.358
   63POPE  C210 6276   6.714   3.585   3.409
   63POPE  H101 6277   6.705   3.681   3.459
   63POPE  C211 6278   6.576   3.515   3.440
   63POPE  H11R 6279   6.563   3.410   3.405
   63POPE  H11S 6280   6.500   3.568   3.381
   63POPE  C212 6281   6.510   3.502   3.583
   63POPE  H12R 6282   6.443   3.588   3.601
   63POPE  H12S 6283   6.591   3.504   3.659
   63POPE  C213 6284   6.426   3.371   3.598
   63POPE  H13R 6285   6.487   3.285   3.564
   63POPE  H13S 6286   6.338   3.374   3.530
   63POPE  C214 6287   6.377   3.330   3.740
   63POPE  H14R 6288   6.361   3.220   3.742
   63POPE  H14S 6289   6.279   3.377   3.762
   63POPE  C215 6290   6.478   3.368   3.849
   63POPE  H15R 6291   6.485   3.479   3.853
   63POPE  H15S 6292   6.577   3.328   3.820
   63POPE  C216 6293   6.449   3.320   3.992
   63POPE  H16R 6294   6.447   3.209   3.996
   63POPE  H16S 6295   6.349   3.356   4.027
   63POPE  C217 6296   6.560   3.375   4.083
   63POPE  H17R 6297   6.543   3.484   4.098
   63POPE  H17S 6298   6.657   3.365   4.028
   63POPE  C218 6299   6.578   3.307   4.218
   63POPE  H18R 6300   6.596   3.198   4.208
   63POPE  H18S 6301   6.487   3.323   4.280
   63POPE  H18T 6302   6.665   3.351   4.272
   63POPE   C33 6303   6.444   3.217   2.825
   63POPE   H3X 6304   6.544   3.255   2.793
   63POPE   H3Y 6305   6.404   3.158   2.739
   63POPE   C34 6306   6.465   3.116   2.937
   63POPE   H4X 6307   6.368   3.085   2.981
   63POPE   H4Y 6308   6.530   3.156   3.017
   63POPE   C35 6309   6.537   2.998   2.871
   63POPE   H5X 6310   6.633   3.035   2.828
   63POPE   H5Y 6311   6.475   2.962   2.786
   63POPE   C36 6312   6.566   2.880   2.962
   63POPE   H6X 6313   6.646   2.907   3.035
   63POPE   H6Y 6314   6.602   2.800   2.893
   63POPE   C37 6315   6.445   2.826   3.036
   63POPE   H7X 6316   6.369   2.802   2.958
   63POPE   H7Y 6317   6.403   2.903   3.103
   63POPE   C38 6318   6.475   2.697   3.112
   63POPE   H8X 6319   6.536   2.629   3.049
   63POPE   H8Y 6320   6.378   2.647   3.129
   63POPE   C39 6321   6.542   2.719   3.248
   63POPE   H9X 6322   6.632   2.783   3.236
   63POPE   H9Y 6323   6.577   2.620   3.286
   63POPE  C310 6324   6.447   2.778   3.353
   63POPE  H10X 6325   6.365   2.705   3.370
   63POPE  H10Y 6326   6.401   2.873   3.318
   63POPE  C311 6327   6.516   2.802   3.488
   63POPE  H11X 6328   6.592   2.722   3.502
   63POPE  H11Y 6329   6.442   2.795   3.571
   63POPE  C312 6330   6.584   2.939   3.498
   63POPE  H12X 6331   6.509   3.020   3.508
   63POPE  H12Y 6332   6.643   2.958   3.406
   63POPE  C313 6333   6.681   2.941   3.617
   63POPE  H13X 6334   6.782   2.957   3.573
   63POPE  H13Y 6335   6.682   2.839   3.661
   63POPE  C314 6336   6.650   3.045   3.728
   63POPE  H14X 6337   6.571   3.004   3.793
   63POPE  H14Y 6338   6.610   3.136   3.679
   63POPE  C315 6339   6.769   3.090   3.815
   63POPE  H15X 6340   6.787   3.197   3.792
   63POPE  H15Y 6341   6.864   3.037   3.789
   63POPE  C316 6342   6.745   3.086   3.966
   63POPE  H16X 6343   6.821   3.146   4.021
   63POPE  H16Y 6344   6.746   2.982   4.005
   63POPE  H16Z 6345   6.645   3.130   3.987
   64POPE     N 6346   1.843   2.271   2.153
   64POPE   HN1 6347   1.869   2.236   2.247
   64POPE   HN2 6348   1.810   2.187   2.102
   64POPE   HN3 6349   1.928   2.315   2.109
   64POPE   C12 6350   1.727   2.367   2.168
   64POPE  H12A 6351   1.704   2.412   2.070
   64POPE  H12B 6352   1.758   2.446   2.240
   64POPE   C11 6353   1.606   2.293   2.225
   64POPE  H11A 6354   1.563   2.221   2.151
   64POPE  H11B 6355   1.527   2.370   2.244
   64POPE     P 6356   1.533   2.198   2.454
   64POPE   O13 6357   1.598   2.141   2.572
   64POPE   O14 6358   1.424   2.121   2.388
   64POPE   O11 6359   1.485   2.345   2.484
   64POPE   O12 6360   1.645   2.222   2.343
   64POPE    C1 6361   1.570   2.438   2.551
   64POPE    HA 6362   1.563   2.535   2.496
   64POPE    HB 6363   1.678   2.409   2.550
   64POPE    C2 6364   1.522   2.463   2.697
   64POPE    HS 6365   1.578   2.550   2.738
   64POPE   O21 6366   1.543   2.347   2.780
   64POPE   C21 6367   1.671   2.323   2.806
   64POPE   O22 6368   1.761   2.404   2.794
   64POPE   C22 6369   1.691   2.179   2.853
   64POPE   H2R 6370   1.739   2.126   2.767
   64POPE   H2S 6371   1.594   2.130   2.871
   64POPE    C3 6372   1.372   2.502   2.698
   64POPE    HX 6373   1.311   2.418   2.656
   64POPE    HY 6374   1.360   2.586   2.627
   64POPE   O31 6375   1.330   2.544   2.830
   64POPE   C31 6376   1.291   2.442   2.908
   64POPE   O32 6377   1.262   2.331   2.869
   64POPE   C32 6378   1.280   2.485   3.054
   64POPE   H2X 6379   1.175   2.516   3.066
   64POPE   H2Y 6380   1.345   2.573   3.072
   64POPE   C23 6381   1.788   2.168   2.974
   64POPE   H3R 6382   1.878   2.231   2.955
   64POPE   H3S 6383   1.824   2.063   2.978
   64POPE   C24 6384   1.727   2.202   3.111
   64POPE   H4R 6385   1.709   2.312   3.116
   64POPE   H4S 6386   1.803   2.177   3.189
   64POPE   C25 6387   1.597   2.128   3.143
   64POPE   H5R 6388   1.604   2.023   3.105
   64POPE   H5S 6389   1.514   2.176   3.086
   64POPE   C26 6390   1.562   2.122   3.293
   64POPE   H6R 6391   1.622   2.041   3.340
   64POPE   H6S 6392   1.455   2.092   3.303
   64POPE   C27 6393   1.586   2.252   3.372
   64POPE   H7R 6394   1.543   2.339   3.319
   64POPE   H7S 6395   1.696   2.270   3.379
   64POPE   C28 6396   1.526   2.248   3.514
   64POPE   H8R 6397   1.418   2.222   3.508
   64POPE   H8S 6398   1.532   2.351   3.557
   64POPE   C29 6399   1.603   2.153   3.601
   64POPE   H91 6400   1.711   2.174   3.605
   64POPE  C210 6401   1.557   2.047   3.671
   64POPE  H101 6402   1.630   1.987   3.727
   64POPE  C211 6403   1.415   1.997   3.681
   64POPE  H11R 6404   1.379   1.960   3.582
   64POPE  H11S 6405   1.346   2.079   3.712
   64POPE  C212 6406   1.404   1.883   3.786
   64POPE  H12R 6407   1.464   1.796   3.754
   64POPE  H12S 6408   1.299   1.847   3.788
   64POPE  C213 6409   1.444   1.934   3.926
   64POPE  H13R 6410   1.407   2.039   3.931
   64POPE  H13S 6411   1.555   1.939   3.935
   64POPE  C214 6412   1.386   1.861   4.049
   64POPE  H14R 6413   1.441   1.767   4.067
   64POPE  H14S 6414   1.280   1.834   4.028
   64POPE  C215 6415   1.392   1.952   4.174
   64POPE  H15R 6416   1.403   2.057   4.140
   64POPE  H15S 6417   1.481   1.928   4.234
   64POPE  C216 6418   1.274   1.946   4.273
   64POPE  H16R 6419   1.267   1.843   4.310
   64POPE  H16S 6420   1.178   1.970   4.225
   64POPE  C217 6421   1.292   2.035   4.397
   64POPE  H17R 6422   1.399   2.035   4.427
   64POPE  H17S 6423   1.235   1.990   4.481
   64POPE  C218 6424   1.243   2.178   4.373
   64POPE  H18R 6425   1.135   2.186   4.358
   64POPE  H18S 6426   1.279   2.216   4.277
   64POPE  H18T 6427   1.274   2.245   4.456
   64POPE   C33 6428   1.317   2.369   3.150
   64POPE   H3X 6429   1.427   2.365   3.157
   64POPE   H3Y 6430   1.284   2.272   3.106
   64POPE   C34 6431   1.251   2.376   3.289
   64POPE   H4X 6432   1.291   2.461   3.348
   64POPE   H4Y 6433   1.277   2.283   3.344
   64POPE   C35 6434   1.098   2.386   3.277
   64POPE   H5X 6435   1.070   2.326   3.189
   64POPE   H5Y 6436   1.066   2.487   3.252
   64POPE   C36 6437   1.018   2.339   3.396
   64POPE   H6X 6438   1.065   2.245   3.432
   64POPE   H6Y 6439   0.914   2.314   3.364
   64POPE   C37 6440   1.010   2.438   3.512
   64POPE   H7X 6441   0.925   2.508   3.497
   64POPE   H7Y 6442   1.103   2.498   3.518
   64POPE   C38 6443   0.996   2.355   3.639
   64POPE   H8X 6444   1.090   2.298   3.649
   64POPE   H8Y 6445   0.913   2.283   3.620
   64POPE   C39 6446   0.970   2.428   3.770
   64POPE   H9X 6447   0.923   2.359   3.843
   64POPE   H9Y 6448   0.897   2.508   3.748
   64POPE  C310 6449   1.103   2.480   3.829
   64POPE  H10X 6450   1.133   2.569   3.770
   64POPE  H10Y 6451   1.180   2.402   3.812
   64POPE  C311 6452   1.108   2.513   3.979
   64POPE  H11X 6453   1.113   2.420   4.038
   64POPE  H11Y 6454   1.018   2.564   4.019
   64POPE  C312 6455   1.229   2.604   4.006
   64POPE  H12X 6456   1.220   2.651   4.107
   64POPE  H12Y 6457   1.229   2.688   3.933
   64POPE  C313 6458   1.361   2.528   3.997
   64POPE  H13X 6459   1.443   2.597   4.030
   64POPE  H13Y 6460   1.381   2.500   3.891
   64POPE  C314 6461   1.359   2.401   4.084
   64POPE  H14X 6462   1.303   2.320   4.031
   64POPE  H14Y 6463   1.303   2.426   4.177
   64POPE  C315 6464   1.497   2.349   4.121
   64POPE  H15X 6465   1.568   2.433   4.104
   64POPE  H15Y 6466   1.527   2.268   4.051
   64POPE  C316 6467   1.506   2.300   4.266
   64POPE  H16X 6468   1.604   2.313   4.313
   64POPE  H16Y 6469   1.486   2.192   4.272
   64POPE  H16Z 6470   1.434   2.354   4.331
   65POPE     N 6471   2.269   1.356   2.297
   65POPE   HN1 6472   2.288   1.448   2.251
   65POPE   HN2 6473   2.358   1.301   2.302
   65POPE   HN3 6474   2.192   1.310   2.244
   65POPE   C12 6475   2.212   1.396   2.430
   65POPE  H12A 6476   2.266   1.488   2.460
   65POPE  H12B 6477   2.232   1.316   2.504
   65POPE   C11 6478   2.062   1.424   2.412
   65POPE  H11A 6479   2.024   1.476   2.504
   65POPE  H11B 6480   2.008   1.327   2.407
   65POPE     P 6481   2.020   1.654   2.297
   65POPE   O13 6482   1.909   1.680   2.389
   65POPE   O14 6483   2.016   1.704   2.156
   65POPE   O11 6484   2.161   1.686   2.363
   65POPE   O12 6485   2.037   1.496   2.290
   65POPE    C1 6486   2.175   1.798   2.450
   65POPE    HA 6487   2.077   1.842   2.478
   65POPE    HB 6488   2.228   1.880   2.395
   65POPE    C2 6489   2.254   1.772   2.584
   65POPE    HS 6490   2.356   1.813   2.566
   65POPE   O21 6491   2.265   1.634   2.626
   65POPE   C21 6492   2.340   1.621   2.736
   65POPE   O22 6493   2.427   1.697   2.773
   65POPE   C22 6494   2.292   1.502   2.818
   65POPE   H2R 6495   2.372   1.425   2.817
   65POPE   H2S 6496   2.199   1.461   2.774
   65POPE    C3 6497   2.186   1.854   2.698
   65POPE    HX 6498   2.170   1.957   2.661
   65POPE    HY 6499   2.254   1.862   2.785
   65POPE   O31 6500   2.064   1.792   2.743
   65POPE   C31 6501   1.952   1.856   2.713
   65POPE   O32 6502   1.941   1.954   2.643
   65POPE   C32 6503   1.842   1.803   2.805
   65POPE   H2X 6504   1.745   1.837   2.766
   65POPE   H2Y 6505   1.862   1.856   2.900
   65POPE   C23 6506   2.265   1.548   2.963
   65POPE   H3R 6507   2.183   1.624   2.962
   65POPE   H3S 6508   2.355   1.597   3.007
   65POPE   C24 6509   2.223   1.432   3.055
   65POPE   H4R 6510   2.310   1.365   3.072
   65POPE   H4S 6511   2.144   1.373   3.005
   65POPE   C25 6512   2.168   1.481   3.190
   65POPE   H5R 6513   2.088   1.555   3.171
   65POPE   H5S 6514   2.248   1.532   3.247
   65POPE   C26 6515   2.109   1.365   3.272
   65POPE   H6R 6516   2.192   1.298   3.303
   65POPE   H6S 6517   2.042   1.305   3.206
   65POPE   C27 6518   2.027   1.410   3.394
   65POPE   H7R 6519   1.997   1.319   3.452
   65POPE   H7S 6520   1.933   1.458   3.360
   65POPE   C28 6521   2.099   1.509   3.487
   65POPE   H8R 6522   2.033   1.532   3.574
   65POPE   H8S 6523   2.118   1.605   3.434
   65POPE   C29 6524   2.227   1.442   3.528
   65POPE   H91 6525   2.315   1.467   3.468
   65POPE  C210 6526   2.240   1.358   3.631
   65POPE  H101 6527   2.338   1.315   3.652
   65POPE  C211 6528   2.133   1.313   3.727
   65POPE  H11R 6529   2.129   1.202   3.736
   65POPE  H11S 6530   2.031   1.350   3.702
   65POPE  C212 6531   2.181   1.377   3.857
   65POPE  H12R 6532   2.185   1.488   3.844
   65POPE  H12S 6533   2.283   1.341   3.879
   65POPE  C213 6534   2.098   1.348   3.981
   65POPE  H13R 6535   2.104   1.240   4.006
   65POPE  H13S 6536   1.992   1.375   3.962
   65POPE  C214 6537   2.152   1.434   4.096
   65POPE  H14R 6538   2.073   1.502   4.135
   65POPE  H14S 6539   2.229   1.502   4.053
   65POPE  C215 6540   2.216   1.356   4.213
   65POPE  H15R 6541   2.246   1.432   4.288
   65POPE  H15S 6542   2.306   1.301   4.178
   65POPE  C216 6543   2.123   1.258   4.284
   65POPE  H16R 6544   2.158   1.242   4.389
   65POPE  H16S 6545   2.126   1.160   4.232
   65POPE  C217 6546   1.980   1.309   4.285
   65POPE  H17R 6547   1.946   1.329   4.180
   65POPE  H17S 6548   1.972   1.405   4.340
   65POPE  C218 6549   1.884   1.206   4.337
   65POPE  H18R 6550   1.788   1.225   4.287
   65POPE  H18S 6551   1.869   1.214   4.445
   65POPE  H18T 6552   1.917   1.103   4.310
   65POPE   C33 6553   1.846   1.650   2.826
   65POPE   H3X 6554   1.950   1.615   2.845
   65POPE   H3Y 6555   1.810   1.598   2.734
   65POPE   C34 6556   1.763   1.606   2.947
   65POPE   H4X 6557   1.772   1.495   2.959
   65POPE   H4Y 6558   1.655   1.628   2.928
   65POPE   C35 6559   1.806   1.673   3.077
   65POPE   H5X 6560   1.784   1.782   3.072
   65POPE   H5Y 6561   1.916   1.662   3.093
   65POPE   C36 6562   1.730   1.616   3.195
   65POPE   H6X 6563   1.788   1.537   3.246
   65POPE   H6Y 6564   1.638   1.568   3.156
   65POPE   C37 6565   1.687   1.725   3.293
   65POPE   H7X 6566   1.602   1.681   3.351
   65POPE   H7Y 6567   1.647   1.814   3.240
   65POPE   C38 6568   1.793   1.766   3.395
   65POPE   H8X 6569   1.824   1.871   3.378
   65POPE   H8Y 6570   1.883   1.701   3.386
   65POPE   C39 6571   1.731   1.750   3.533
   65POPE   H9X 6572   1.698   1.643   3.543
   65POPE   H9Y 6573   1.640   1.813   3.541
   65POPE  C310 6574   1.825   1.780   3.649
   65POPE  H10X 6575   1.843   1.890   3.656
   65POPE  H10Y 6576   1.923   1.730   3.633
   65POPE  C311 6577   1.761   1.728   3.776
   65POPE  H11X 6578   1.746   1.618   3.767
   65POPE  H11Y 6579   1.661   1.774   3.787
   65POPE  C312 6580   1.839   1.757   3.904
   65POPE  H12X 6581   1.843   1.867   3.920
   65POPE  H12Y 6582   1.943   1.718   3.896
   65POPE  C313 6583   1.767   1.689   4.020
   65POPE  H13X 6584   1.782   1.580   4.007
   65POPE  H13Y 6585   1.658   1.708   4.009
   65POPE  C314 6586   1.812   1.733   4.159
   65POPE  H14X 6587   1.899   1.802   4.150
   65POPE  H14Y 6588   1.846   1.646   4.218
   65POPE  C315 6589   1.696   1.801   4.233
   65POPE  H15X 6590   1.609   1.733   4.241
   65POPE  H15Y 6591   1.665   1.884   4.168
   65POPE  C316 6592   1.728   1.854   4.373
   65POPE  H16X 6593   1.648   1.923   4.407
   65POPE  H16Y 6594   1.824   1.909   4.372
   65POPE  H16Z 6595   1.736   1.771   4.446
   66POPE     N 6596   5.803   1.401   2.296
   66POPE   HN1 6597   5.760   1.486   2.256
   66POPE   HN2 6598   5.835   1.343   2.216
   66POPE   HN3 6599   5.733   1.344   2.351
   66POPE   C12 6600   5.921   1.448   2.379
   66POPE  H12A 6601   6.014   1.432   2.320
   66POPE  H12B 6602   5.925   1.386   2.471
   66POPE   C11 6603   5.907   1.598   2.415
   66POPE  H11A 6604   5.992   1.624   2.483
   66POPE  H11B 6605   5.814   1.613   2.473
   66POPE     P 6606   5.888   1.839   2.305
   66POPE   O13 6607   5.817   1.867   2.431
   66POPE   O14 6608   5.826   1.876   2.175
   66POPE   O11 6609   6.035   1.894   2.314
   66POPE   O12 6610   5.909   1.680   2.296
   66POPE    C1 6611   6.148   1.828   2.373
   66POPE    HA 6612   6.232   1.842   2.301
   66POPE    HB 6613   6.139   1.718   2.382
   66POPE    C2 6614   6.201   1.890   2.508
   66POPE    HS 6615   6.312   1.890   2.498
   66POPE   O21 6616   6.164   1.815   2.627
   66POPE   C21 6617   6.237   1.849   2.736
   66POPE   O22 6618   6.330   1.927   2.735
   66POPE   C22 6619   6.192   1.777   2.862
   66POPE   H2R 6620   6.082   1.783   2.866
   66POPE   H2S 6621   6.229   1.833   2.950
   66POPE    C3 6622   6.154   2.038   2.521
   66POPE    HX 6623   6.186   2.089   2.428
   66POPE    HY 6624   6.213   2.084   2.603
   66POPE   O31 6625   6.011   2.059   2.537
   66POPE   C31 6626   5.972   2.053   2.663
   66POPE   O32 6627   6.047   2.037   2.758
   66POPE   C32 6628   5.824   2.081   2.684
   66POPE   H2X 6629   5.764   1.996   2.645
   66POPE   H2Y 6630   5.796   2.172   2.626
   66POPE   C23 6631   6.246   1.632   2.864
   66POPE   H3R 6632   6.357   1.635   2.874
   66POPE   H3S 6633   6.219   1.584   2.767
   66POPE   C24 6634   6.194   1.542   2.976
   66POPE   H4R 6635   6.246   1.566   3.071
   66POPE   H4S 6636   6.220   1.436   2.951
   66POPE   C25 6637   6.044   1.553   2.998
   66POPE   H5R 6638   6.025   1.649   3.052
   66POPE   H5S 6639   6.013   1.470   3.066
   66POPE   C26 6640   5.954   1.549   2.874
   66POPE   H6R 6641   5.992   1.474   2.801
   66POPE   H6S 6642   5.949   1.647   2.821
   66POPE   C27 6643   5.812   1.510   2.913
   66POPE   H7R 6644   5.821   1.403   2.939
   66POPE   H7S 6645   5.743   1.521   2.825
   66POPE   C28 6646   5.754   1.586   3.034
   66POPE   H8R 6647   5.723   1.687   3.002
   66POPE   H8S 6648   5.832   1.604   3.111
   66POPE   C29 6649   5.640   1.513   3.098
   66POPE   H91 6650   5.552   1.498   3.033
   66POPE  C210 6651   5.637   1.460   3.222
   66POPE  H101 6652   5.545   1.411   3.256
   66POPE  C211 6653   5.750   1.461   3.323
   66POPE  H11R 6654   5.847   1.458   3.268
   66POPE  H11S 6655   5.747   1.367   3.380
   66POPE  C212 6656   5.765   1.568   3.433
   66POPE  H12R 6657   5.756   1.671   3.393
   66POPE  H12S 6658   5.872   1.555   3.461
   66POPE  C213 6659   5.683   1.542   3.561
   66POPE  H13R 6660   5.653   1.435   3.565
   66POPE  H13S 6661   5.588   1.599   3.567
   66POPE  C214 6662   5.762   1.574   3.689
   66POPE  H14R 6663   5.826   1.487   3.709
   66POPE  H14S 6664   5.692   1.584   3.775
   66POPE  C215 6665   5.854   1.696   3.680
   66POPE  H15R 6666   5.797   1.786   3.647
   66POPE  H15S 6667   5.936   1.678   3.606
   66POPE  C216 6668   5.925   1.724   3.812
   66POPE  H16R 6669   5.977   1.634   3.845
   66POPE  H16S 6670   5.850   1.747   3.891
   66POPE  C217 6671   6.032   1.832   3.801
   66POPE  H17R 6672   5.990   1.921   3.749
   66POPE  H17S 6673   6.117   1.794   3.740
   66POPE  C218 6674   6.082   1.873   3.938
   66POPE  H18R 6675   6.141   1.966   3.932
   66POPE  H18S 6676   6.144   1.793   3.984
   66POPE  H18T 6677   5.994   1.891   4.004
   66POPE   C33 6678   5.800   2.104   2.836
   66POPE   H3X 6679   5.697   2.142   2.850
   66POPE   H3Y 6680   5.867   2.184   2.872
   66POPE   C34 6681   5.819   1.977   2.923
   66POPE   H4X 6682   5.906   1.917   2.890
   66POPE   H4Y 6683   5.732   1.909   2.909
   66POPE   C35 6684   5.842   2.005   3.072
   66POPE   H5X 6685   5.938   2.058   3.087
   66POPE   H5Y 6686   5.850   1.905   3.123
   66POPE   C36 6687   5.729   2.083   3.139
   66POPE   H6X 6688   5.633   2.041   3.099
   66POPE   H6Y 6689   5.731   2.191   3.111
   66POPE   C37 6690   5.727   2.066   3.291
   66POPE   H7X 6691   5.740   1.958   3.315
   66POPE   H7Y 6692   5.623   2.094   3.321
   66POPE   C38 6693   5.829   2.146   3.376
   66POPE   H8X 6694   5.861   2.236   3.320
   66POPE   H8Y 6695   5.919   2.082   3.392
   66POPE   C39 6696   5.772   2.186   3.513
   66POPE   H9X 6697   5.673   2.140   3.513
   66POPE   H9Y 6698   5.754   2.295   3.525
   66POPE  C310 6699   5.827   2.115   3.638
   66POPE  H10X 6700   5.922   2.161   3.673
   66POPE  H10Y 6701   5.846   2.008   3.610
   66POPE  C311 6702   5.726   2.114   3.755
   66POPE  H11X 6703   5.630   2.065   3.723
   66POPE  H11Y 6704   5.705   2.220   3.782
   66POPE  C312 6705   5.775   2.048   3.883
   66POPE  H12X 6706   5.876   2.089   3.906
   66POPE  H12Y 6707   5.784   1.939   3.867
   66POPE  C313 6708   5.683   2.072   4.003
   66POPE  H13X 6709   5.584   2.026   3.986
   66POPE  H13Y 6710   5.668   2.182   4.017
   66POPE  C314 6711   5.749   2.015   4.129
   66POPE  H14X 6712   5.847   2.066   4.138
   66POPE  H14Y 6713   5.768   1.906   4.113
   66POPE  C315 6714   5.669   2.034   4.257
   66POPE  H15X 6715   5.566   2.000   4.235
   66POPE  H15Y 6716   5.660   2.143   4.280
   66POPE  C316 6717   5.724   1.959   4.380
   66POPE  H16X 6718   5.655   1.968   4.467
   66POPE  H16Y 6719   5.822   1.997   4.412
   66POPE  H16Z 6720   5.737   1.851   4.357
   67POPE     N 6721   2.430   0.898   2.261
   67POPE   HN1 6722   2.376   0.983   2.239
   67POPE   HN2 6723   2.524   0.909   2.214
   67POPE   HN3 6724   2.389   0.813   2.214
   67POPE   C12 6725   2.463   0.883   2.406
   67POPE  H12A 6726   2.534   0.799   2.411
   67POPE  H12B 6727   2.370   0.859   2.462
   67POPE   C11 6728   2.531   1.010   2.461
   67POPE  H11A 6729   2.606   0.982   2.539
   67POPE  H11B 6730   2.455   1.072   2.513
   67POPE     P 6731   2.724   1.049   2.282
   67POPE   O13 6732   2.798   1.173   2.251
   67POPE   O14 6733   2.676   0.963   2.171
   67POPE   O11 6734   2.797   0.958   2.391
   67POPE   O12 6735   2.591   1.090   2.359
   67POPE    C1 6736   2.831   0.818   2.375
   67POPE    HA 6737   2.938   0.813   2.343
   67POPE    HB 6738   2.772   0.765   2.298
   67POPE    C2 6739   2.825   0.731   2.508
   67POPE    HS 6740   2.888   0.641   2.490
   67POPE   O21 6741   2.688   0.690   2.532
   67POPE   C21 6742   2.640   0.655   2.652
   67POPE   O22 6743   2.700   0.639   2.755
   67POPE   C22 6744   2.486   0.652   2.649
   67POPE   H2R 6745   2.454   0.553   2.686
   67POPE   H2S 6746   2.453   0.657   2.544
   67POPE    C3 6747   2.885   0.810   2.628
   67POPE    HX 6748   2.969   0.872   2.588
   67POPE    HY 6749   2.928   0.738   2.701
   67POPE   O31 6750   2.786   0.892   2.692
   67POPE   C31 6751   2.835   0.976   2.781
   67POPE   O32 6752   2.953   0.998   2.802
   67POPE   C32 6753   2.717   1.032   2.860
   67POPE   H2X 6754   2.718   0.984   2.960
   67POPE   H2Y 6755   2.623   1.001   2.810
   67POPE   C23 6756   2.422   0.764   2.738
   67POPE   H3R 6757   2.317   0.780   2.705
   67POPE   H3S 6758   2.477   0.859   2.726
   67POPE   C24 6759   2.419   0.721   2.885
   67POPE   H4R 6760   2.521   0.686   2.910
   67POPE   H4S 6761   2.348   0.635   2.892
   67POPE   C25 6762   2.385   0.819   2.999
   67POPE   H5R 6763   2.282   0.859   2.987
   67POPE   H5S 6764   2.457   0.903   2.999
   67POPE   C26 6765   2.395   0.743   3.134
   67POPE   H6R 6766   2.502   0.717   3.154
   67POPE   H6S 6767   2.340   0.647   3.125
   67POPE   C27 6768   2.337   0.814   3.257
   67POPE   H7R 6769   2.354   0.748   3.346
   67POPE   H7S 6770   2.227   0.822   3.242
   67POPE   C28 6771   2.397   0.952   3.284
   67POPE   H8R 6772   2.388   1.015   3.192
   67POPE   H8S 6773   2.506   0.940   3.304
   67POPE   C29 6774   2.323   1.017   3.398
   67POPE   H91 6775   2.220   1.050   3.375
   67POPE  C210 6776   2.371   1.036   3.521
   67POPE  H101 6777   2.309   1.087   3.596
   67POPE  C211 6778   2.508   0.995   3.567
   67POPE  H11R 6779   2.581   1.074   3.537
   67POPE  H11S 6780   2.542   0.900   3.519
   67POPE  C212 6781   2.518   0.976   3.720
   67POPE  H12R 6782   2.465   0.883   3.749
   67POPE  H12S 6783   2.468   1.061   3.772
   67POPE  C213 6784   2.664   0.970   3.766
   67POPE  H13R 6785   2.722   1.051   3.716
   67POPE  H13S 6786   2.708   0.874   3.732
   67POPE  C214 6787   2.685   0.985   3.917
   67POPE  H14R 6788   2.665   1.089   3.951
   67POPE  H14S 6789   2.792   0.965   3.938
   67POPE  C215 6790   2.599   0.892   4.003
   67POPE  H15R 6791   2.581   0.796   3.951
   67POPE  H15S 6792   2.499   0.940   4.020
   67POPE  C216 6793   2.667   0.862   4.138
   67POPE  H16R 6794   2.675   0.958   4.194
   67POPE  H16S 6795   2.770   0.825   4.119
   67POPE  C217 6796   2.591   0.760   4.222
   67POPE  H17R 6797   2.496   0.733   4.170
   67POPE  H17S 6798   2.563   0.807   4.319
   67POPE  C218 6799   2.667   0.633   4.257
   67POPE  H18R 6800   2.734   0.602   4.174
   67POPE  H18S 6801   2.594   0.553   4.276
   67POPE  H18T 6802   2.727   0.648   4.349
   67POPE   C33 6803   2.720   1.186   2.868
   67POPE   H3X 6804   2.616   1.224   2.881
   67POPE   H3Y 6805   2.759   1.228   2.773
   67POPE   C34 6806   2.804   1.237   2.985
   67POPE   H4X 6807   2.820   1.347   2.973
   67POPE   H4Y 6808   2.905   1.190   2.979
   67POPE   C35 6809   2.742   1.210   3.124
   67POPE   H5X 6810   2.678   1.120   3.122
   67POPE   H5Y 6811   2.678   1.297   3.151
   67POPE   C36 6812   2.851   1.188   3.231
   67POPE   H6X 6813   2.931   1.261   3.213
   67POPE   H6Y 6814   2.897   1.088   3.214
   67POPE   C37 6815   2.811   1.202   3.379
   67POPE   H7X 6816   2.906   1.219   3.434
   67POPE   H7Y 6817   2.768   1.105   3.414
   67POPE   C38 6818   2.717   1.317   3.421
   67POPE   H8X 6819   2.614   1.292   3.387
   67POPE   H8Y 6820   2.748   1.411   3.371
   67POPE   C39 6821   2.716   1.341   3.574
   67POPE   H9X 6822   2.815   1.380   3.606
   67POPE   H9Y 6823   2.701   1.243   3.624
   67POPE  C310 6824   2.605   1.437   3.620
   67POPE  H10X 6825   2.509   1.396   3.582
   67POPE  H10Y 6826   2.619   1.536   3.572
   67POPE  C311 6827   2.592   1.457   3.772
   67POPE  H11X 6828   2.508   1.527   3.792
   67POPE  H11Y 6829   2.684   1.502   3.815
   67POPE  C312 6830   2.562   1.326   3.846
   67POPE  H12X 6831   2.654   1.263   3.845
   67POPE  H12Y 6832   2.484   1.271   3.789
   67POPE  C313 6833   2.510   1.342   3.990
   67POPE  H13X 6834   2.461   1.245   4.017
   67POPE  H13Y 6835   2.433   1.421   3.994
   67POPE  C314 6836   2.620   1.369   4.091
   67POPE  H14X 6837   2.649   1.475   4.100
   67POPE  H14Y 6838   2.707   1.322   4.043
   67POPE  C315 6839   2.599   1.300   4.227
   67POPE  H15X 6840   2.698   1.264   4.260
   67POPE  H15Y 6841   2.537   1.209   4.211
   67POPE  C316 6842   2.546   1.384   4.343
   67POPE  H16X 6843   2.600   1.481   4.348
   67POPE  H16Y 6844   2.559   1.331   4.439
   67POPE  H16Z 6845   2.438   1.406   4.332
   68POPE     N 6846   3.763   7.179   2.425
   68POPE   HN1 6847   3.795   7.181   2.524
   68POPE   HN2 6848   3.735   7.273   2.390
   68POPE   HN3 6849   3.669   7.128   2.425
   68POPE   C12 6850   3.860   7.111   2.332
   68POPE  H12A 6851   3.827   7.130   2.228
   68POPE  H12B 6852   3.852   7.002   2.353
   68POPE   C11 6853   4.004   7.162   2.354
   68POPE  H11A 6854   4.033   7.154   2.461
   68POPE  H11B 6855   4.007   7.270   2.328
   68POPE     P 6856   4.126   6.939   2.284
   68POPE   O13 6857   4.265   6.905   2.250
   68POPE   O14 6858   4.021   6.873   2.203
   68POPE   O11 6859   4.096   6.906   2.435
   68POPE   O12 6860   4.101   7.096   2.273
   68POPE    C1 6861   4.178   6.809   2.502
   68POPE    HA 6862   4.286   6.815   2.473
   68POPE    HB 6863   4.141   6.707   2.477
   68POPE    C2 6864   4.167   6.829   2.655
   68POPE    HS 6865   4.059   6.829   2.678
   68POPE   O21 6866   4.232   6.951   2.698
   68POPE   C21 6867   4.152   7.055   2.716
   68POPE   O22 6868   4.032   7.059   2.697
   68POPE   C22 6869   4.235   7.171   2.770
   68POPE   H2R 6870   4.329   7.174   2.711
   68POPE   H2S 6871   4.262   7.150   2.876
   68POPE    C3 6872   4.229   6.707   2.730
   68POPE    HX 6873   4.336   6.694   2.703
   68POPE    HY 6874   4.175   6.617   2.692
   68POPE   O31 6875   4.208   6.715   2.873
   68POPE   C31 6876   4.300   6.783   2.941
   68POPE   O32 6877   4.397   6.839   2.895
   68POPE   C32 6878   4.276   6.762   3.091
   68POPE   H2X 6879   4.367   6.715   3.134
   68POPE   H2Y 6880   4.194   6.689   3.100
   68POPE   C23 6881   4.164   7.306   2.757
   68POPE   H3R 6882   4.110   7.316   2.660
   68POPE   H3S 6883   4.247   7.380   2.749
   68POPE   C24 6884   4.075   7.354   2.873
   68POPE   H4R 6885   3.994   7.417   2.830
   68POPE   H4S 6886   4.136   7.420   2.939
   68POPE   C25 6887   4.010   7.256   2.972
   68POPE   H5R 6888   4.089   7.205   3.032
   68POPE   H5S 6889   3.952   7.178   2.919
   68POPE   C26 6890   3.921   7.341   3.065
   68POPE   H6R 6891   3.847   7.392   2.999
   68POPE   H6S 6892   3.984   7.421   3.110
   68POPE   C27 6893   3.842   7.269   3.175
   68POPE   H7R 6894   3.828   7.163   3.145
   68POPE   H7S 6895   3.741   7.315   3.182
   68POPE   C28 6896   3.907   7.276   3.315
   68POPE   H8R 6897   4.011   7.240   3.302
   68POPE   H8S 6898   3.856   7.203   3.381
   68POPE   C29 6899   3.909   7.414   3.379
   68POPE   H91 6900   3.924   7.498   3.308
   68POPE  C210 6901   3.899   7.443   3.510
   68POPE  H101 6902   3.911   7.547   3.543
   68POPE  C211 6903   3.882   7.344   3.623
   68POPE  H11R 6904   3.798   7.275   3.599
   68POPE  H11S 6905   3.851   7.401   3.714
   68POPE  C212 6906   4.000   7.256   3.666
   68POPE  H12R 6907   4.089   7.318   3.692
   68POPE  H12S 6908   4.031   7.187   3.584
   68POPE  C213 6909   3.959   7.173   3.789
   68POPE  H13R 6910   3.858   7.129   3.776
   68POPE  H13S 6911   3.953   7.246   3.874
   68POPE  C214 6912   4.061   7.066   3.827
   68POPE  H14R 6913   4.046   7.044   3.935
   68POPE  H14S 6914   4.161   7.110   3.810
   68POPE  C215 6915   4.062   6.932   3.752
   68POPE  H15R 6916   4.127   6.943   3.662
   68POPE  H15S 6917   3.960   6.913   3.715
   68POPE  C216 6918   4.112   6.816   3.841
   68POPE  H16R 6919   4.094   6.719   3.790
   68POPE  H16S 6920   4.053   6.816   3.936
   68POPE  C217 6921   4.261   6.825   3.878
   68POPE  H17R 6922   4.280   6.931   3.904
   68POPE  H17S 6923   4.323   6.799   3.789
   68POPE  C218 6924   4.307   6.744   3.999
   68POPE  H18R 6925   4.418   6.741   4.002
   68POPE  H18S 6926   4.267   6.641   3.997
   68POPE  H18T 6927   4.273   6.794   4.093
   68POPE   C33 6928   4.231   6.883   3.176
   68POPE   H3X 6929   4.135   6.921   3.132
   68POPE   H3Y 6930   4.304   6.967   3.174
   68POPE   C34 6931   4.203   6.840   3.321
   68POPE   H4X 6932   4.185   6.731   3.326
   68POPE   H4Y 6933   4.109   6.892   3.354
   68POPE   C35 6934   4.310   6.875   3.424
   68POPE   H5X 6935   4.271   6.854   3.527
   68POPE   H5Y 6936   4.324   6.985   3.417
   68POPE   C36 6937   4.448   6.809   3.415
   68POPE   H6X 6938   4.475   6.778   3.312
   68POPE   H6Y 6939   4.454   6.720   3.480
   68POPE   C37 6940   4.542   6.921   3.462
   68POPE   H7X 6941   4.494   6.967   3.552
   68POPE   H7Y 6942   4.540   6.999   3.382
   68POPE   C38 6943   4.688   6.890   3.493
   68POPE   H8X 6944   4.739   6.989   3.505
   68POPE   H8Y 6945   4.733   6.839   3.406
   68POPE   C39 6946   4.712   6.810   3.622
   68POPE   H9X 6947   4.822   6.795   3.634
   68POPE   H9Y 6948   4.666   6.709   3.608
   68POPE  C310 6949   4.654   6.871   3.751
   68POPE  H10X 6950   4.632   6.787   3.821
   68POPE  H10Y 6951   4.558   6.923   3.734
   68POPE  C311 6952   4.748   6.968   3.824
   68POPE  H11X 6953   4.757   7.061   3.763
   68POPE  H11Y 6954   4.850   6.924   3.833
   68POPE  C312 6955   4.695   7.000   3.965
   68POPE  H12X 6956   4.725   6.911   4.025
   68POPE  H12Y 6957   4.585   7.002   3.968
   68POPE  C313 6958   4.760   7.128   4.021
   68POPE  H13X 6959   4.804   7.180   3.933
   68POPE  H13Y 6960   4.841   7.086   4.082
   68POPE  C314 6961   4.708   7.230   4.125
   68POPE  H14X 6962   4.798   7.276   4.174
   68POPE  H14Y 6963   4.651   7.182   4.207
   68POPE  C315 6964   4.642   7.356   4.069
   68POPE  H15X 6965   4.644   7.432   4.150
   68POPE  H15Y 6966   4.535   7.337   4.050
   68POPE  C316 6967   4.709   7.417   3.946
   68POPE  H16X 6968   4.640   7.494   3.908
   68POPE  H16Y 6969   4.728   7.346   3.864
   68POPE  H16Z 6970   4.807   7.463   3.971
   69POPE     N 6971   4.905   6.895   2.242
   69POPE   HN1 6972   4.847   6.977   2.271
   69POPE   HN2 6973   4.846   6.846   2.169
   69POPE   HN3 6974   4.922   6.832   2.322
   69POPE   C12 6975   5.033   6.952   2.187
   69POPE  H12A 6976   5.006   7.035   2.119
   69POPE  H12B 6977   5.084   6.872   2.130
   69POPE   C11 6978   5.127   7.004   2.299
   69POPE  H11A 6979   5.217   7.054   2.256
   69POPE  H11B 6980   5.163   6.918   2.357
   69POPE     P 6981   5.043   7.244   2.378
   69POPE   O13 6982   4.926   7.278   2.460
   69POPE   O14 6983   5.034   7.273   2.233
   69POPE   O11 6984   5.174   7.307   2.439
   69POPE   O12 6985   5.060   7.087   2.392
   69POPE    C1 6986   5.256   7.235   2.530
   69POPE    HA 6987   5.359   7.277   2.524
   69POPE    HB 6988   5.266   7.129   2.503
   69POPE    C2 6989   5.209   7.251   2.679
   69POPE    HS 6990   5.282   7.198   2.743
   69POPE   O21 6991   5.077   7.199   2.706
   69POPE   C21 6992   5.065   7.068   2.687
   69POPE   O22 6993   5.157   6.993   2.660
   69POPE   C22 6994   4.924   7.017   2.712
   69POPE   H2R 6995   4.878   7.005   2.611
   69POPE   H2S 6996   4.864   7.091   2.768
   69POPE    C3 6997   5.217   7.402   2.717
   69POPE    HX 6998   5.131   7.453   2.666
   69POPE    HY 6999   5.310   7.446   2.675
   69POPE   O31 7000   5.207   7.426   2.859
   69POPE   C31 7001   5.299   7.371   2.937
   69POPE   O32 7002   5.404   7.320   2.904
   69POPE   C32 7003   5.242   7.365   3.078
   69POPE   H2X 7004   5.243   7.259   3.109
   69POPE   H2Y 7005   5.139   7.400   3.065
   69POPE   C23 7006   4.926   6.878   2.782
   69POPE   H3R 7007   4.989   6.806   2.725
   69POPE   H3S 7008   4.822   6.838   2.781
   69POPE   C24 7009   4.975   6.882   2.929
   69POPE   H4R 7010   4.912   6.952   2.987
   69POPE   H4S 7011   5.080   6.919   2.929
   69POPE   C25 7012   4.971   6.745   2.999
   69POPE   H5R 7013   5.013   6.669   2.928
   69POPE   H5S 7014   4.866   6.716   3.020
   69POPE   C26 7015   5.055   6.736   3.129
   69POPE   H6R 7016   5.161   6.756   3.104
   69POPE   H6S 7017   5.047   6.631   3.162
   69POPE   C27 7018   5.012   6.821   3.249
   69POPE   H7R 7019   4.924   6.771   3.297
   69POPE   H7S 7020   4.977   6.920   3.215
   69POPE   C28 7021   5.122   6.838   3.357
   69POPE   H8R 7022   5.153   6.736   3.390
   69POPE   H8S 7023   5.076   6.886   3.446
   69POPE   C29 7024   5.246   6.914   3.312
   69POPE   H91 7025   5.277   6.892   3.210
   69POPE  C210 7026   5.324   6.998   3.384
   69POPE  H101 7027   5.411   7.044   3.333
   69POPE  C211 7028   5.310   7.039   3.528
   69POPE  H11R 7029   5.225   7.108   3.538
   69POPE  H11S 7030   5.398   7.100   3.560
   69POPE  C212 7031   5.294   6.922   3.628
   69POPE  H12R 7032   5.395   6.901   3.672
   69POPE  H12S 7033   5.262   6.828   3.578
   69POPE  C213 7034   5.195   6.953   3.741
   69POPE  H13R 7035   5.201   6.872   3.817
   69POPE  H13S 7036   5.091   6.955   3.701
   69POPE  C214 7037   5.231   7.089   3.801
   69POPE  H14R 7038   5.202   7.171   3.733
   69POPE  H14S 7039   5.342   7.088   3.807
   69POPE  C215 7040   5.190   7.128   3.942
   69POPE  H15R 7041   5.237   7.226   3.955
   69POPE  H15S 7042   5.230   7.057   4.016
   69POPE  C216 7043   5.052   7.176   3.980
   69POPE  H16R 7044   4.991   7.088   3.958
   69POPE  H16S 7045   5.012   7.257   3.918
   69POPE  C217 7046   5.059   7.231   4.125
   69POPE  H17R 7047   5.147   7.186   4.176
   69POPE  H17S 7048   4.976   7.196   4.188
   69POPE  C218 7049   5.072   7.384   4.129
   69POPE  H18R 7050   5.147   7.421   4.056
   69POPE  H18S 7051   5.107   7.417   4.228
   69POPE  H18T 7052   4.975   7.435   4.107
   69POPE   C33 7053   5.310   7.452   3.187
   69POPE   H3X 7054   5.334   7.552   3.145
   69POPE   H3Y 7055   5.404   7.401   3.216
   69POPE   C34 7056   5.222   7.475   3.312
   69POPE   H4X 7057   5.277   7.545   3.379
   69POPE   H4Y 7058   5.220   7.381   3.367
   69POPE   C35 7059   5.082   7.537   3.282
   69POPE   H5X 7060   5.033   7.494   3.193
   69POPE   H5Y 7061   5.121   7.635   3.250
   69POPE   C36 7062   4.967   7.567   3.384
   69POPE   H6X 7063   4.966   7.677   3.396
   69POPE   H6Y 7064   4.985   7.534   3.485
   69POPE   C37 7065   4.821   7.521   3.348
   69POPE   H7X 7066   4.826   7.441   3.274
   69POPE   H7Y 7067   4.774   7.605   3.292
   69POPE   C38 7068   4.724   7.483   3.467
   69POPE   H8X 7069   4.631   7.542   3.449
   69POPE   H8Y 7070   4.768   7.517   3.562
   69POPE   C39 7071   4.676   7.334   3.479
   69POPE   H9X 7072   4.754   7.264   3.514
   69POPE   H9Y 7073   4.651   7.306   3.374
   69POPE  C310 7074   4.545   7.301   3.555
   69POPE  H10X 7075   4.514   7.199   3.523
   69POPE  H10Y 7076   4.473   7.376   3.522
   69POPE  C311 7077   4.533   7.295   3.707
   69POPE  H11X 7078   4.548   7.396   3.749
   69POPE  H11Y 7079   4.611   7.225   3.744
   69POPE  C312 7080   4.396   7.244   3.758
   69POPE  H12X 7081   4.347   7.179   3.683
   69POPE  H12Y 7082   4.328   7.330   3.778
   69POPE  C313 7083   4.412   7.160   3.885
   69POPE  H13X 7084   4.513   7.184   3.925
   69POPE  H13Y 7085   4.417   7.054   3.857
   69POPE  C314 7086   4.315   7.192   3.999
   69POPE  H14X 7087   4.212   7.154   3.991
   69POPE  H14Y 7088   4.306   7.303   4.002
   69POPE  C315 7089   4.359   7.143   4.136
   69POPE  H15X 7090   4.469   7.144   4.141
   69POPE  H15Y 7091   4.328   7.037   4.155
   69POPE  C316 7092   4.299   7.240   4.237
   69POPE  H16X 7093   4.330   7.219   4.342
   69POPE  H16Y 7094   4.188   7.236   4.228
   69POPE  H16Z 7095   4.332   7.343   4.209
   70POPE     N 7096   0.351   4.948   2.086
   70POPE   HN1 7097   0.272   5.008   2.053
   70POPE   HN2 7098   0.430   4.951   2.016
   70POPE   HN3 7099   0.313   4.850   2.089
   70POPE   C12 7100   0.394   4.983   2.226
   70POPE  H12A 7101   0.429   5.088   2.227
   70POPE  H12B 7102   0.479   4.916   2.252
   70POPE   C11 7103   0.280   4.963   2.329
   70POPE  H11A 7104   0.219   5.056   2.337
   70POPE  H11B 7105   0.323   4.944   2.430
   70POPE     P 7106   0.175   4.718   2.358
   70POPE   O13 7107   0.308   4.660   2.384
   70POPE   O14 7108   0.090   4.642   2.263
   70POPE   O11 7109   0.096   4.754   2.489
   70POPE   O12 7110   0.194   4.859   2.286
   70POPE    C1 7111  -0.007   4.856   2.495
   70POPE    HA 7112  -0.092   4.827   2.429
   70POPE    HB 7113   0.031   4.954   2.459
   70POPE    C2 7114  -0.062   4.880   2.640
   70POPE    HS 7115  -0.155   4.942   2.630
   70POPE   O21 7116   0.037   4.955   2.714
   70POPE   C21 7117   0.031   4.979   2.844
   70POPE   O22 7118  -0.056   4.943   2.921
   70POPE   C22 7119   0.153   5.067   2.883
   70POPE   H2R 7120   0.115   5.138   2.959
   70POPE   H2S 7121   0.177   5.122   2.790
   70POPE    C3 7122  -0.099   4.745   2.710
   70POPE    HX 7123  -0.166   4.689   2.641
   70POPE    HY 7124  -0.157   4.764   2.803
   70POPE   O31 7125   0.021   4.670   2.731
   70POPE   C31 7126   0.057   4.646   2.855
   70POPE   O32 7127  -0.018   4.626   2.949
   70POPE   C32 7128   0.209   4.656   2.858
   70POPE   H2X 7129   0.237   4.752   2.808
   70POPE   H2Y 7130   0.252   4.576   2.795
   70POPE   C23 7131   0.284   4.998   2.932
   70POPE   H3R 7132   0.359   4.997   2.850
   70POPE   H3S 7133   0.260   4.893   2.953
   70POPE   C24 7134   0.354   5.049   3.060
   70POPE   H4R 7135   0.400   5.149   3.044
   70POPE   H4S 7136   0.440   4.982   3.082
   70POPE   C25 7137   0.269   5.060   3.188
   70POPE   H5R 7138   0.212   5.155   3.183
   70POPE   H5S 7139   0.335   5.065   3.277
   70POPE   C26 7140   0.164   4.952   3.210
   70POPE   H6R 7141   0.216   4.863   3.251
   70POPE   H6S 7142   0.115   4.924   3.115
   70POPE   C27 7143   0.049   4.999   3.303
   70POPE   H7R 7144  -0.001   5.086   3.255
   70POPE   H7S 7145   0.090   5.033   3.400
   70POPE   C28 7146  -0.056   4.889   3.324
   70POPE   H8R 7147  -0.111   4.878   3.227
   70POPE   H8S 7148  -0.131   4.919   3.400
   70POPE   C29 7149   0.009   4.756   3.357
   70POPE   H91 7150  -0.013   4.678   3.282
   70POPE  C210 7151   0.085   4.721   3.462
   70POPE  H101 7152   0.135   4.624   3.453
   70POPE  C211 7153   0.129   4.801   3.583
   70POPE  H11R 7154   0.056   4.783   3.665
   70POPE  H11S 7155   0.125   4.910   3.564
   70POPE  C212 7156   0.270   4.770   3.642
   70POPE  H12R 7157   0.268   4.800   3.749
   70POPE  H12S 7158   0.340   4.835   3.589
   70POPE  C213 7159   0.327   4.626   3.632
   70POPE  H13R 7160   0.332   4.598   3.524
   70POPE  H13S 7161   0.262   4.554   3.684
   70POPE  C214 7162   0.467   4.601   3.692
   70POPE  H14R 7163   0.542   4.650   3.628
   70POPE  H14S 7164   0.486   4.492   3.687
   70POPE  C215 7165   0.492   4.651   3.836
   70POPE  H15R 7166   0.490   4.762   3.832
   70POPE  H15S 7167   0.594   4.621   3.869
   70POPE  C216 7168   0.390   4.599   3.939
   70POPE  H16R 7169   0.410   4.492   3.961
   70POPE  H16S 7170   0.289   4.605   3.893
   70POPE  C217 7171   0.385   4.678   4.071
   70POPE  H17R 7172   0.475   4.653   4.132
   70POPE  H17S 7173   0.295   4.644   4.128
   70POPE  C218 7174   0.377   4.829   4.054
   70POPE  H18R 7175   0.478   4.873   4.040
   70POPE  H18S 7176   0.330   4.878   4.143
   70POPE  H18T 7177   0.317   4.856   3.965
   70POPE   C33 7178   0.259   4.649   3.004
   70POPE   H3X 7179   0.218   4.557   3.050
   70POPE   H3Y 7180   0.215   4.732   3.063
   70POPE   C34 7181   0.412   4.653   3.016
   70POPE   H4X 7182   0.444   4.753   3.054
   70POPE   H4Y 7183   0.455   4.642   2.914
   70POPE   C35 7184   0.467   4.541   3.105
   70POPE   H5X 7185   0.558   4.497   3.058
   70POPE   H5Y 7186   0.392   4.460   3.112
   70POPE   C36 7187   0.501   4.583   3.248
   70POPE   H6X 7188   0.486   4.496   3.316
   70POPE   H6Y 7189   0.430   4.662   3.280
   70POPE   C37 7190   0.648   4.627   3.261
   70POPE   H7X 7191   0.671   4.699   3.179
   70POPE   H7Y 7192   0.713   4.538   3.247
   70POPE   C38 7193   0.682   4.694   3.395
   70POPE   H8X 7194   0.788   4.726   3.393
   70POPE   H8Y 7195   0.673   4.619   3.476
   70POPE   C39 7196   0.593   4.814   3.429
   70POPE   H9X 7197   0.491   4.777   3.449
   70POPE   H9Y 7198   0.587   4.882   3.340
   70POPE  C310 7199   0.642   4.894   3.551
   70POPE  H10X 7200   0.739   4.943   3.525
   70POPE  H10Y 7201   0.661   4.827   3.637
   70POPE  C311 7202   0.542   5.004   3.590
   70POPE  H11X 7203   0.449   4.993   3.530
   70POPE  H11Y 7204   0.586   5.100   3.556
   70POPE  C312 7205   0.503   5.020   3.740
   70POPE  H12X 7206   0.587   4.996   3.807
   70POPE  H12Y 7207   0.419   4.952   3.765
   70POPE  C313 7208   0.457   5.166   3.753
   70POPE  H13X 7209   0.367   5.170   3.687
   70POPE  H13Y 7210   0.538   5.232   3.713
   70POPE  C314 7211   0.419   5.233   3.886
   70POPE  H14X 7212   0.394   5.339   3.860
   70POPE  H14Y 7213   0.506   5.238   3.953
   70POPE  C315 7214   0.296   5.175   3.955
   70POPE  H15X 7215   0.322   5.071   3.987
   70POPE  H15Y 7216   0.212   5.167   3.883
   70POPE  C316 7217   0.252   5.255   4.078
   70POPE  H16X 7218   0.181   5.336   4.049
   70POPE  H16Y 7219   0.340   5.302   4.127
   70POPE  H16Z 7220   0.202   5.188   4.152
   71POPE     N 7221   0.250   5.394   2.355
   71POPE   HN1 7222   0.170   5.461   2.344
   71POPE   HN2 7223   0.238   5.316   2.287
   71POPE   HN3 7224   0.247   5.355   2.452
   71POPE   C12 7225   0.383   5.461   2.332
   71POPE  H12A 7226   0.412   5.443   2.227
   71POPE  H12B 7227   0.458   5.413   2.398
   71POPE   C11 7228   0.379   5.613   2.358
   71POPE  H11A 7229   0.368   5.635   2.467
   71POPE  H11B 7230   0.290   5.656   2.308
   71POPE     P 7231   0.633   5.661   2.370
   71POPE   O13 7232   0.722   5.769   2.323
   71POPE   O14 7233   0.677   5.520   2.367
   71POPE   O11 7234   0.597   5.691   2.520
   71POPE   O12 7235   0.493   5.676   2.300
   71POPE    C1 7236   0.700   5.652   2.614
   71POPE    HA 7237   0.798   5.701   2.592
   71POPE    HB 7238   0.716   5.541   2.614
   71POPE    C2 7239   0.655   5.695   2.755
   71POPE    HS 7240   0.727   5.660   2.832
   71POPE   O21 7241   0.523   5.639   2.774
   71POPE   C21 7242   0.520   5.505   2.788
   71POPE   O22 7243   0.616   5.434   2.811
   71POPE   C22 7244   0.377   5.454   2.771
   71POPE   H2R 7245   0.373   5.410   2.669
   71POPE   H2S 7246   0.308   5.539   2.773
   71POPE    C3 7247   0.657   5.853   2.754
   71POPE    HX 7248   0.578   5.885   2.683
   71POPE    HY 7249   0.756   5.879   2.710
   71POPE   O31 7250   0.641   5.920   2.881
   71POPE   C31 7251   0.709   6.033   2.907
   71POPE   O32 7252   0.807   6.070   2.844
   71POPE   C32 7253   0.639   6.109   3.024
   71POPE   H2X 7254   0.633   6.216   2.997
   71POPE   H2Y 7255   0.700   6.100   3.116
   71POPE   C23 7256   0.335   5.344   2.871
   71POPE   H3R 7257   0.416   5.269   2.881
   71POPE   H3S 7258   0.249   5.297   2.819
   71POPE   C24 7259   0.275   5.382   3.010
   71POPE   H4R 7260   0.356   5.406   3.082
   71POPE   H4S 7261   0.222   5.293   3.048
   71POPE   C25 7262   0.171   5.492   3.006
   71POPE   H5R 7263   0.147   5.509   2.899
   71POPE   H5S 7264   0.217   5.582   3.050
   71POPE   C26 7265   0.038   5.481   3.080
   71POPE   H6R 7266   0.008   5.377   3.101
   71POPE   H6S 7267  -0.037   5.529   3.013
   71POPE   C27 7268   0.025   5.574   3.200
   71POPE   H7R 7269  -0.082   5.584   3.225
   71POPE   H7S 7270   0.055   5.678   3.172
   71POPE   C28 7271   0.113   5.527   3.316
   71POPE   H8R 7272   0.084   5.594   3.400
   71POPE   H8S 7273   0.214   5.556   3.284
   71POPE   C29 7274   0.115   5.381   3.359
   71POPE   H91 7275   0.015   5.336   3.373
   71POPE  C210 7276   0.226   5.306   3.383
   71POPE  H101 7277   0.209   5.202   3.414
   71POPE  C211 7278   0.375   5.341   3.376
   71POPE  H11R 7279   0.394   5.418   3.298
   71POPE  H11S 7280   0.437   5.254   3.348
   71POPE  C212 7281   0.427   5.396   3.511
   71POPE  H12R 7282   0.393   5.333   3.593
   71POPE  H12S 7283   0.365   5.483   3.526
   71POPE  C213 7284   0.576   5.435   3.529
   71POPE  H13R 7285   0.608   5.501   3.445
   71POPE  H13S 7286   0.636   5.339   3.525
   71POPE  C214 7287   0.605   5.512   3.664
   71POPE  H14R 7288   0.696   5.467   3.709
   71POPE  H14S 7289   0.522   5.494   3.736
   71POPE  C215 7290   0.635   5.665   3.660
   71POPE  H15R 7291   0.547   5.727   3.636
   71POPE  H15S 7292   0.712   5.684   3.582
   71POPE  C216 7293   0.690   5.721   3.794
   71POPE  H16R 7294   0.748   5.814   3.774
   71POPE  H16S 7295   0.761   5.648   3.839
   71POPE  C217 7296   0.581   5.757   3.897
   71POPE  H17R 7297   0.543   5.662   3.940
   71POPE  H17S 7298   0.497   5.807   3.844
   71POPE  C218 7299   0.626   5.849   4.011
   71POPE  H18R 7300   0.539   5.876   4.075
   71POPE  H18S 7301   0.669   5.943   3.971
   71POPE  H18T 7302   0.702   5.800   4.075
   71POPE   C33 7303   0.498   6.049   3.042
   71POPE   H3X 7304   0.514   5.943   3.070
   71POPE   H3Y 7305   0.450   6.055   2.941
   71POPE   C34 7306   0.388   6.100   3.135
   71POPE   H4X 7307   0.319   6.014   3.153
   71POPE   H4Y 7308   0.327   6.174   3.081
   71POPE   C35 7309   0.418   6.149   3.276
   71POPE   H5X 7310   0.502   6.220   3.281
   71POPE   H5Y 7311   0.448   6.062   3.336
   71POPE   C36 7312   0.286   6.209   3.328
   71POPE   H6X 7313   0.204   6.140   3.303
   71POPE   H6Y 7314   0.262   6.301   3.272
   71POPE   C37 7315   0.280   6.231   3.479
   71POPE   H7X 7316   0.176   6.208   3.512
   71POPE   H7Y 7317   0.292   6.337   3.505
   71POPE   C38 7318   0.385   6.149   3.555
   71POPE   H8X 7319   0.486   6.187   3.529
   71POPE   H8Y 7320   0.378   6.043   3.525
   71POPE   C39 7321   0.366   6.156   3.704
   71POPE   H9X 7322   0.359   6.262   3.729
   71POPE   H9Y 7323   0.454   6.113   3.758
   71POPE  C310 7324   0.239   6.082   3.743
   71POPE  H10X 7325   0.264   5.977   3.715
   71POPE  H10Y 7326   0.150   6.111   3.684
   71POPE  C311 7327   0.202   6.094   3.890
   71POPE  H11X 7328   0.172   6.198   3.915
   71POPE  H11Y 7329   0.291   6.067   3.951
   71POPE  C312 7330   0.091   5.996   3.927
   71POPE  H12X 7331  -0.006   6.022   3.881
   71POPE  H12Y 7332   0.080   5.993   4.037
   71POPE  C313 7333   0.125   5.860   3.873
   71POPE  H13X 7334   0.235   5.848   3.888
   71POPE  H13Y 7335   0.104   5.858   3.764
   71POPE  C314 7336   0.049   5.746   3.936
   71POPE  H14X 7337   0.009   5.682   3.857
   71POPE  H14Y 7338  -0.040   5.787   3.988
   71POPE  C315 7339   0.132   5.664   4.035
   71POPE  H15X 7340   0.083   5.565   4.043
   71POPE  H15Y 7341   0.117   5.714   4.131
   71POPE  C316 7342   0.284   5.644   4.018
   71POPE  H16X 7343   0.321   5.571   4.093
   71POPE  H16Y 7344   0.337   5.740   4.036
   71POPE  H16Z 7345   0.312   5.605   3.919
   72POPE     N 7346   7.666   4.382   2.205
   72POPE   HN1 7347   7.754   4.338   2.242
   72POPE   HN2 7348   7.694   4.466   2.150
   72POPE   HN3 7349   7.608   4.411   2.286
   72POPE   C12 7350   7.597   4.280   2.118
   72POPE  H12A 7351   7.670   4.246   2.041
   72POPE  H12B 7352   7.513   4.331   2.069
   72POPE   C11 7353   7.544   4.158   2.195
   72POPE  H11A 7354   7.501   4.085   2.122
   72POPE  H11B 7355   7.459   4.194   2.259
   72POPE     P 7356   7.608   4.018   2.402
   72POPE   O13 7357   7.733   3.975   2.464
   72POPE   O14 7358   7.499   3.923   2.370
   72POPE   O11 7359   7.547   4.143   2.480
   72POPE   O12 7360   7.649   4.093   2.268
   72POPE    C1 7361   7.629   4.255   2.514
   72POPE    HA 7362   7.565   4.346   2.520
   72POPE    HB 7363   7.709   4.273   2.438
   72POPE    C2 7364   7.702   4.236   2.649
   72POPE    HS 7365   7.777   4.154   2.632
   72POPE   O21 7366   7.606   4.202   2.751
   72POPE   C21 7367   7.658   4.126   2.846
   72POPE   O22 7368   7.772   4.083   2.849
   72POPE   C22 7369   7.556   4.105   2.957
   72POPE   H2R 7370   7.459   4.078   2.912
   72POPE   H2S 7371   7.546   4.201   3.011
   72POPE    C3 7372   7.776   4.366   2.691
   72POPE    HX 7373   7.694   4.433   2.725
   72POPE    HY 7374   7.825   4.415   2.604
   72POPE   O31 7375   7.869   4.348   2.799
   72POPE   C31 7376   7.985   4.290   2.766
   72POPE   O32 7377   8.018   4.255   2.654
   72POPE   C32 7378   8.077   4.282   2.889
   72POPE   H2X 7379   8.097   4.387   2.918
   72POPE   H2Y 7380   8.172   4.237   2.854
   72POPE   C23 7381   7.605   3.994   3.054
   72POPE   H3R 7382   7.712   4.009   3.082
   72POPE   H3S 7383   7.599   3.897   2.999
   72POPE   C24 7384   7.523   3.985   3.183
   72POPE   H4R 7385   7.416   3.999   3.155
   72POPE   H4S 7386   7.550   4.069   3.251
   72POPE   C25 7387   7.533   3.850   3.257
   72POPE   H5R 7388   7.518   3.768   3.183
   72POPE   H5S 7389   7.449   3.844   3.330
   72POPE   C26 7390   7.663   3.822   3.334
   72POPE   H6R 7391   7.747   3.818   3.261
   72POPE   H6S 7392   7.656   3.722   3.382
   72POPE   C27 7393   7.700   3.926   3.441
   72POPE   H7R 7394   7.733   4.014   3.383
   72POPE   H7S 7395   7.787   3.892   3.500
   72POPE   C28 7396   7.588   3.971   3.538
   72POPE   H8R 7397   7.505   4.015   3.479
   72POPE   H8S 7398   7.629   4.055   3.597
   72POPE   C29 7399   7.534   3.867   3.633
   72POPE   H91 7400   7.459   3.800   3.589
   72POPE  C210 7401   7.568   3.850   3.762
   72POPE  H101 7402   7.520   3.771   3.820
   72POPE  C211 7403   7.669   3.930   3.842
   72POPE  H11R 7404   7.735   3.990   3.777
   72POPE  H11S 7405   7.733   3.857   3.895
   72POPE  C212 7406   7.613   4.024   3.951
   72POPE  H12R 7407   7.696   4.053   4.019
   72POPE  H12S 7408   7.537   3.970   4.012
   72POPE  C213 7409   7.554   4.153   3.892
   72POPE  H13R 7410   7.532   4.137   3.784
   72POPE  H13S 7411   7.629   4.234   3.900
   72POPE  C214 7412   7.423   4.196   3.959
   72POPE  H14R 7413   7.361   4.104   3.964
   72POPE  H14S 7414   7.369   4.268   3.894
   72POPE  C215 7415   7.438   4.256   4.101
   72POPE  H15R 7416   7.530   4.218   4.150
   72POPE  H15S 7417   7.352   4.219   4.157
   72POPE  C216 7418   7.434   4.409   4.103
   72POPE  H16R 7419   7.355   4.448   4.035
   72POPE  H16S 7420   7.533   4.436   4.064
   72POPE  C217 7421   7.429   4.484   4.237
   72POPE  H17R 7422   7.514   4.557   4.234
   72POPE  H17S 7423   7.449   4.415   4.321
   72POPE  C218 7424   7.306   4.572   4.260
   72POPE  H18R 7425   7.331   4.657   4.328
   72POPE  H18S 7426   7.221   4.518   4.305
   72POPE  H18T 7427   7.273   4.615   4.163
   72POPE   C33 7428   8.029   4.200   3.013
   72POPE   H3X 7429   8.113   4.202   3.086
   72POPE   H3Y 7430   8.011   4.094   2.986
   72POPE   C34 7431   7.905   4.255   3.086
   72POPE   H4X 7432   7.813   4.230   3.029
   72POPE   H4Y 7433   7.907   4.365   3.094
   72POPE   C35 7434   7.892   4.198   3.227
   72POPE   H5X 7435   7.925   4.091   3.227
   72POPE   H5Y 7436   7.785   4.200   3.258
   72POPE   C36 7437   7.975   4.282   3.324
   72POPE   H6X 7438   7.938   4.387   3.324
   72POPE   H6Y 7439   8.080   4.283   3.288
   72POPE   C37 7440   7.974   4.225   3.466
   72POPE   H7X 7441   8.054   4.273   3.526
   72POPE   H7Y 7442   7.997   4.118   3.456
   72POPE   C38 7443   7.840   4.240   3.539
   72POPE   H8X 7444   7.857   4.208   3.644
   72POPE   H8Y 7445   7.765   4.172   3.494
   72POPE   C39 7446   7.778   4.379   3.534
   72POPE   H9X 7447   7.738   4.404   3.433
   72POPE   H9Y 7448   7.861   4.449   3.555
   72POPE  C310 7449   7.670   4.397   3.641
   72POPE  H10X 7450   7.685   4.314   3.713
   72POPE  H10Y 7451   7.568   4.382   3.600
   72POPE  C311 7452   7.680   4.528   3.721
   72POPE  H11X 7453   7.606   4.602   3.685
   72POPE  H11Y 7454   7.780   4.572   3.705
   72POPE  C312 7455   7.668   4.500   3.870
   72POPE  H12X 7456   7.738   4.417   3.893
   72POPE  H12Y 7457   7.564   4.462   3.880
   72POPE  C313 7458   7.704   4.610   3.974
   72POPE  H13X 7459   7.807   4.646   3.954
   72POPE  H13Y 7460   7.708   4.558   4.073
   72POPE  C314 7461   7.610   4.730   3.989
   72POPE  H14X 7462   7.522   4.701   4.051
   72POPE  H14Y 7463   7.572   4.761   3.890
   72POPE  C315 7464   7.678   4.850   4.058
   72POPE  H15X 7465   7.614   4.940   4.042
   72POPE  H15Y 7466   7.776   4.872   4.011
   72POPE  C316 7467   7.696   4.830   4.209
   72POPE  H16X 7468   7.606   4.779   4.251
   72POPE  H16Y 7469   7.708   4.927   4.262
   72POPE  H16Z 7470   7.785   4.766   4.230
   73POPE     N 7471   0.086   3.036   2.296
   73POPE   HN1 7472   0.038   3.071   2.382
   73POPE   HN2 7473   0.090   3.110   2.223
   73POPE   HN3 7474   0.034   2.951   2.261
   73POPE   C12 7475   0.222   2.979   2.322
   73POPE  H12A 7476   0.273   3.041   2.399
   73POPE  H12B 7477   0.279   2.982   2.228
   73POPE   C11 7478   0.205   2.833   2.365
   73POPE  H11A 7479   0.177   2.831   2.474
   73POPE  H11B 7480   0.302   2.781   2.352
   73POPE     P 7481   0.065   2.620   2.339
   73POPE   O13 7482   0.049   2.533   2.221
   73POPE   O14 7483  -0.055   2.643   2.420
   73POPE   O11 7484   0.189   2.580   2.429
   73POPE   O12 7485   0.109   2.764   2.285
   73POPE    C1 7486   0.288   2.490   2.378
   73POPE    HA 7487   0.338   2.533   2.288
   73POPE    HB 7488   0.238   2.396   2.346
   73POPE    C2 7489   0.402   2.449   2.480
   73POPE    HS 7490   0.454   2.365   2.430
   73POPE   O21 7491   0.358   2.407   2.611
   73POPE   C21 7492   0.275   2.303   2.610
   73POPE   O22 7493   0.247   2.233   2.514
   73POPE   C22 7494   0.207   2.287   2.745
   73POPE   H2R 7495   0.281   2.304   2.826
   73POPE   H2S 7496   0.172   2.181   2.751
   73POPE    C3 7497   0.510   2.561   2.502
   73POPE    HX 7498   0.543   2.597   2.401
   73POPE    HY 7499   0.598   2.509   2.544
   73POPE   O31 7500   0.471   2.668   2.593
   73POPE   C31 7501   0.475   2.792   2.546
   73POPE   O32 7502   0.507   2.827   2.435
   73POPE   C32 7503   0.397   2.887   2.641
   73POPE   H2X 7504   0.301   2.839   2.667
   73POPE   H2Y 7505   0.376   2.978   2.581
   73POPE   C23 7506   0.084   2.379   2.758
   73POPE   H3R 7507   0.035   2.361   2.856
   73POPE   H3S 7508   0.011   2.355   2.677
   73POPE   C24 7509   0.115   2.529   2.750
   73POPE   H4R 7510   0.020   2.586   2.750
   73POPE   H4S 7511   0.165   2.550   2.653
   73POPE   C25 7512   0.207   2.580   2.862
   73POPE   H5R 7513   0.225   2.687   2.838
   73POPE   H5S 7514   0.305   2.528   2.858
   73POPE   C26 7515   0.145   2.571   3.002
   73POPE   H6R 7516   0.034   2.575   2.995
   73POPE   H6S 7517   0.177   2.663   3.057
   73POPE   C27 7518   0.190   2.450   3.086
   73POPE   H7R 7519   0.302   2.451   3.085
   73POPE   H7S 7520   0.159   2.355   3.039
   73POPE   C28 7521   0.145   2.459   3.233
   73POPE   H8R 7522   0.166   2.563   3.264
   73POPE   H8S 7523   0.212   2.393   3.293
   73POPE   C29 7524   0.001   2.424   3.265
   73POPE   H91 7525  -0.031   2.324   3.233
   73POPE  C210 7526  -0.085   2.495   3.340
   73POPE  H101 7527  -0.189   2.460   3.351
   73POPE  C211 7528  -0.052   2.626   3.408
   73POPE  H11R 7529  -0.045   2.707   3.332
   73POPE  H11S 7530   0.048   2.617   3.454
   73POPE  C212 7531  -0.147   2.668   3.522
   73POPE  H12R 7532  -0.153   2.587   3.598
   73POPE  H12S 7533  -0.250   2.687   3.489
   73POPE  C213 7534  -0.105   2.799   3.589
   73POPE  H13R 7535  -0.190   2.833   3.652
   73POPE  H13S 7536  -0.085   2.878   3.513
   73POPE  C214 7537   0.017   2.776   3.677
   73POPE  H14R 7538   0.109   2.769   3.618
   73POPE  H14S 7539   0.005   2.675   3.724
   73POPE  C215 7540   0.030   2.879   3.788
   73POPE  H15R 7541  -0.056   2.950   3.786
   73POPE  H15S 7542   0.123   2.938   3.775
   73POPE  C216 7543   0.029   2.806   3.921
   73POPE  H16R 7544   0.112   2.733   3.919
   73POPE  H16S 7545  -0.067   2.749   3.931
   73POPE  C217 7546   0.045   2.899   4.040
   73POPE  H17R 7547   0.010   2.843   4.128
   73POPE  H17S 7548  -0.020   2.988   4.030
   73POPE  C218 7549   0.191   2.940   4.056
   73POPE  H18R 7550   0.257   2.851   4.056
   73POPE  H18S 7551   0.207   2.996   4.151
   73POPE  H18T 7552   0.222   3.006   3.972
   73POPE   C33 7553   0.467   2.937   2.770
   73POPE   H3X 7554   0.424   3.037   2.797
   73POPE   H3Y 7555   0.575   2.952   2.753
   73POPE   C34 7556   0.446   2.847   2.892
   73POPE   H4X 7557   0.479   2.745   2.863
   73POPE   H4Y 7558   0.338   2.841   2.917
   73POPE   C35 7559   0.523   2.901   3.014
   73POPE   H5X 7560   0.594   2.976   2.975
   73POPE   H5Y 7561   0.582   2.826   3.070
   73POPE   C36 7562   0.432   2.969   3.114
   73POPE   H6X 7563   0.371   3.035   3.050
   73POPE   H6Y 7564   0.490   3.033   3.184
   73POPE   C37 7565   0.343   2.873   3.193
   73POPE   H7X 7566   0.344   2.772   3.147
   73POPE   H7Y 7567   0.238   2.911   3.189
   73POPE   C38 7568   0.383   2.863   3.340
   73POPE   H8X 7569   0.378   2.966   3.382
   73POPE   H8Y 7570   0.487   2.828   3.351
   73POPE   C39 7571   0.283   2.776   3.419
   73POPE   H9X 7572   0.188   2.771   3.361
   73POPE   H9Y 7573   0.260   2.834   3.511
   73POPE  C310 7574   0.327   2.633   3.456
   73POPE  H10X 7575   0.354   2.577   3.364
   73POPE  H10Y 7576   0.241   2.580   3.504
   73POPE  C311 7577   0.443   2.623   3.554
   73POPE  H11X 7578   0.527   2.675   3.505
   73POPE  H11Y 7579   0.472   2.517   3.570
   73POPE  C312 7580   0.406   2.686   3.689
   73POPE  H12X 7581   0.319   2.633   3.734
   73POPE  H12Y 7582   0.374   2.790   3.671
   73POPE  C313 7583   0.519   2.692   3.791
   73POPE  H13X 7584   0.507   2.618   3.871
   73POPE  H13Y 7585   0.506   2.790   3.843
   73POPE  C314 7586   0.661   2.685   3.733
   73POPE  H14X 7587   0.664   2.730   3.631
   73POPE  H14Y 7588   0.696   2.580   3.725
   73POPE  C315 7589   0.755   2.772   3.814
   73POPE  H15X 7590   0.696   2.850   3.865
   73POPE  H15Y 7591   0.820   2.826   3.743
   73POPE  C316 7592   0.840   2.700   3.915
   73POPE  H16X 7593   0.881   2.769   3.992
   73POPE  H16Y 7594   0.928   2.661   3.861
   73POPE  H16Z 7595   0.785   2.618   3.964
   74POPE     N 7596   1.815   7.229   2.339
   74POPE   HN1 7597   1.889   7.225   2.413
   74POPE   HN2 7598   1.795   7.331   2.324
   74POPE   HN3 7599   1.729   7.183   2.371
   74POPE   C12 7600   1.881   7.173   2.217
   74POPE  H12A 7601   1.803   7.148   2.142
   74POPE  H12B 7602   1.934   7.081   2.248
   74POPE   C11 7603   1.978   7.281   2.165
   74POPE  H11A 7604   1.918   7.357   2.110
   74POPE  H11B 7605   2.047   7.236   2.090
   74POPE     P 7606   2.154   7.259   2.356
   74POPE   O13 7607   2.274   7.340   2.383
   74POPE   O14 7608   2.172   7.135   2.276
   74POPE   O11 7609   2.073   7.228   2.491
   74POPE   O12 7610   2.050   7.347   2.271
   74POPE    C1 7611   2.014   7.334   2.571
   74POPE    HA 7612   1.904   7.326   2.562
   74POPE    HB 7613   2.041   7.434   2.533
   74POPE    C2 7614   2.035   7.332   2.728
   74POPE    HS 7615   2.134   7.375   2.752
   74POPE   O21 7616   2.029   7.198   2.777
   74POPE   C21 7617   2.028   7.174   2.907
   74POPE   O22 7618   2.074   7.244   2.996
   74POPE   C22 7619   1.947   7.046   2.923
   74POPE   H2R 7620   2.011   6.963   2.890
   74POPE   H2S 7621   1.863   7.051   2.851
   74POPE    C3 7622   1.929   7.422   2.798
   74POPE    HX 7623   1.928   7.521   2.749
   74POPE    HY 7624   1.958   7.441   2.904
   74POPE   O31 7625   1.799   7.360   2.783
   74POPE   C31 7626   1.744   7.308   2.893
   74POPE   O32 7627   1.784   7.321   3.007
   74POPE   C32 7628   1.624   7.220   2.854
   74POPE   H2X 7629   1.655   7.114   2.860
   74POPE   H2Y 7630   1.598   7.241   2.749
   74POPE   C23 7631   1.891   7.018   3.064
   74POPE   H3R 7632   1.813   7.092   3.092
   74POPE   H3S 7633   1.974   7.028   3.138
   74POPE   C24 7634   1.834   6.876   3.072
   74POPE   H4R 7635   1.909   6.806   3.028
   74POPE   H4S 7636   1.741   6.868   3.011
   74POPE   C25 7637   1.809   6.832   3.216
   74POPE   H5R 7638   1.889   6.872   3.281
   74POPE   H5S 7639   1.815   6.720   3.221
   74POPE   C26 7640   1.672   6.872   3.271
   74POPE   H6R 7641   1.596   6.811   3.217
   74POPE   H6S 7642   1.646   6.977   3.248
   74POPE   C27 7643   1.665   6.845   3.422
   74POPE   H7R 7644   1.741   6.767   3.446
   74POPE   H7S 7645   1.566   6.803   3.449
   74POPE   C28 7646   1.692   6.966   3.514
   74POPE   H8R 7647   1.744   6.924   3.602
   74POPE   H8S 7648   1.593   7.005   3.549
   74POPE   C29 7649   1.771   7.082   3.458
   74POPE   H91 7650   1.737   7.120   3.361
   74POPE  C210 7651   1.873   7.146   3.517
   74POPE  H101 7652   1.922   7.228   3.462
   74POPE  C211 7653   1.930   7.116   3.652
   74POPE  H11R 7654   2.003   7.034   3.643
   74POPE  H11S 7655   1.854   7.077   3.723
   74POPE  C212 7656   2.004   7.233   3.718
   74POPE  H12R 7657   2.051   7.300   3.642
   74POPE  H12S 7658   2.088   7.190   3.777
   74POPE  C213 7659   1.913   7.310   3.813
   74POPE  H13R 7660   1.809   7.273   3.805
   74POPE  H13S 7661   1.913   7.418   3.788
   74POPE  C214 7662   1.962   7.290   3.956
   74POPE  H14R 7663   2.065   7.333   3.961
   74POPE  H14S 7664   1.971   7.181   3.980
   74POPE  C215 7665   1.876   7.357   4.063
   74POPE  H15R 7666   1.801   7.285   4.104
   74POPE  H15S 7667   1.819   7.442   4.018
   74POPE  C216 7668   1.964   7.411   4.175
   74POPE  H16R 7669   1.897   7.452   4.253
   74POPE  H16S 7670   2.025   7.495   4.134
   74POPE  C217 7671   2.057   7.308   4.240
   74POPE  H17R 7672   2.130   7.363   4.304
   74POPE  H17S 7673   2.117   7.253   4.165
   74POPE  C218 7674   1.984   7.213   4.332
   74POPE  H18R 7675   1.944   7.126   4.277
   74POPE  H18S 7676   1.901   7.268   4.380
   74POPE  H18T 7677   2.052   7.178   4.413
   74POPE   C33 7678   1.500   7.244   2.943
   74POPE   H3X 7679   1.408   7.257   2.883
   74POPE   H3Y 7680   1.514   7.340   2.998
   74POPE   C34 7681   1.477   7.136   3.049
   74POPE   H4X 7682   1.572   7.081   3.068
   74POPE   H4Y 7683   1.403   7.062   3.012
   74POPE   C35 7684   1.429   7.195   3.182
   74POPE   H5X 7685   1.411   7.111   3.253
   74POPE   H5Y 7686   1.333   7.248   3.168
   74POPE   C36 7687   1.531   7.292   3.246
   74POPE   H6X 7688   1.533   7.390   3.194
   74POPE   H6Y 7689   1.633   7.249   3.239
   74POPE   C37 7690   1.493   7.315   3.391
   74POPE   H7X 7691   1.482   7.213   3.438
   74POPE   H7Y 7692   1.393   7.364   3.393
   74POPE   C38 7693   1.591   7.394   3.478
   74POPE   H8X 7694   1.574   7.503   3.467
   74POPE   H8Y 7695   1.695   7.373   3.446
   74POPE   C39 7696   1.577   7.350   3.624
   74POPE   H9X 7697   1.639   7.411   3.692
   74POPE   H9Y 7698   1.618   7.246   3.628
   74POPE  C310 7699   1.432   7.343   3.674
   74POPE  H10X 7700   1.357   7.352   3.594
   74POPE  H10Y 7701   1.416   7.430   3.740
   74POPE  C311 7702   1.400   7.210   3.745
   74POPE  H11X 7703   1.413   7.126   3.673
   74POPE  H11Y 7704   1.295   7.211   3.779
   74POPE  C312 7705   1.489   7.183   3.866
   74POPE  H12X 7706   1.478   7.270   3.932
   74POPE  H12Y 7707   1.596   7.183   3.838
   74POPE  C313 7708   1.449   7.058   3.946
   74POPE  H13X 7709   1.339   7.054   3.961
   74POPE  H13Y 7710   1.495   7.074   4.046
   74POPE  C314 7711   1.500   6.925   3.889
   74POPE  H14X 7712   1.441   6.899   3.799
   74POPE  H14Y 7713   1.482   6.844   3.963
   74POPE  C315 7714   1.648   6.929   3.853
   74POPE  H15X 7715   1.658   7.001   3.769
   74POPE  H15Y 7716   1.680   6.830   3.813
   74POPE  C316 7717   1.743   6.974   3.964
   74POPE  H16X 7718   1.740   6.904   4.050
   74POPE  H16Y 7719   1.718   7.076   4.000
   74POPE  H16Z 7720   1.847   6.979   3.925
   75POPE     N 7721   2.594   0.049   2.183
   75POPE   HN1 7722   2.626  -0.044   2.151
   75POPE   HN2 7723   2.653   0.122   2.137
   75POPE   HN3 7724   2.602   0.062   2.288
   75POPE   C12 7725   2.450   0.071   2.148
   75POPE  H12A 7726   2.387   0.011   2.217
   75POPE  H12B 7727   2.435   0.036   2.044
   75POPE   C11 7728   2.417   0.220   2.162
   75POPE  H11A 7729   2.342   0.246   2.085
   75POPE  H11B 7730   2.505   0.284   2.138
   75POPE     P 7731   2.466   0.274   2.409
   75POPE   O13 7732   2.538   0.398   2.377
   75POPE   O14 7733   2.544   0.149   2.426
   75POPE   O11 7734   2.383   0.294   2.539
   75POPE   O12 7735   2.363   0.249   2.291
   75POPE    C1 7736   2.252   0.345   2.534
   75POPE    HA 7737   2.226   0.393   2.437
   75POPE    HB 7738   2.247   0.427   2.608
   75POPE    C2 7739   2.146   0.235   2.562
   75POPE    HS 7740   2.048   0.286   2.550
   75POPE   O21 7741   2.155   0.179   2.695
   75POPE   C21 7742   2.128   0.264   2.791
   75POPE   O22 7743   2.104   0.382   2.777
   75POPE   C22 7744   2.119   0.189   2.923
   75POPE   H2R 7745   2.139   0.082   2.907
   75POPE   H2S 7746   2.014   0.200   2.958
   75POPE    C3 7747   2.150   0.116   2.459
   75POPE    HX 7748   2.153   0.160   2.358
   75POPE    HY 7749   2.054   0.061   2.463
   75POPE   O31 7750   2.262   0.024   2.474
   75POPE   C31 7751   2.242  -0.066   2.569
   75POPE   O32 7752   2.136  -0.087   2.626
   75POPE   C32 7753   2.375  -0.137   2.597
   75POPE   H2X 7754   2.454  -0.059   2.603
   75POPE   H2Y 7755   2.396  -0.206   2.513
   75POPE   C23 7756   2.215   0.248   3.029
   75POPE   H3R 7757   2.196   0.190   3.122
   75POPE   H3S 7758   2.194   0.355   3.050
   75POPE   C24 7759   2.363   0.231   2.992
   75POPE   H4R 7760   2.380   0.129   2.950
   75POPE   H4S 7761   2.415   0.239   3.089
   75POPE   C25 7762   2.424   0.339   2.901
   75POPE   H5R 7763   2.344   0.398   2.853
   75POPE   H5S 7764   2.477   0.286   2.818
   75POPE   C26 7765   2.525   0.439   2.965
   75POPE   H6R 7766   2.466   0.515   3.018
   75POPE   H6S 7767   2.582   0.485   2.882
   75POPE   C27 7768   2.622   0.385   3.069
   75POPE   H7R 7769   2.631   0.279   3.037
   75POPE   H7S 7770   2.569   0.391   3.167
   75POPE   C28 7771   2.768   0.439   3.084
   75POPE   H8R 7772   2.797   0.484   2.986
   75POPE   H8S 7773   2.831   0.347   3.090
   75POPE   C29 7774   2.817   0.526   3.199
   75POPE   H91 7775   2.822   0.634   3.175
   75POPE  C210 7776   2.856   0.486   3.323
   75POPE  H101 7777   2.896   0.560   3.394
   75POPE  C211 7778   2.856   0.342   3.373
   75POPE  H11R 7779   2.910   0.275   3.304
   75POPE  H11S 7780   2.751   0.315   3.367
   75POPE  C212 7781   2.876   0.294   3.521
   75POPE  H12R 7782   2.935   0.367   3.578
   75POPE  H12S 7783   2.925   0.195   3.512
   75POPE  C213 7784   2.752   0.253   3.603
   75POPE  H13R 7785   2.683   0.202   3.536
   75POPE  H13S 7786   2.706   0.346   3.640
   75POPE  C214 7787   2.762   0.169   3.730
   75POPE  H14R 7788   2.847   0.206   3.792
   75POPE  H14S 7789   2.782   0.063   3.704
   75POPE  C215 7790   2.629   0.183   3.809
   75POPE  H15R 7791   2.549   0.125   3.759
   75POPE  H15S 7792   2.595   0.288   3.810
   75POPE  C216 7793   2.644   0.138   3.954
   75POPE  H16R 7794   2.750   0.152   3.981
   75POPE  H16S 7795   2.618   0.031   3.956
   75POPE  C217 7796   2.566   0.212   4.064
   75POPE  H17R 7797   2.548   0.138   4.146
   75POPE  H17S 7798   2.467   0.246   4.028
   75POPE  C218 7799   2.646   0.327   4.125
   75POPE  H18R 7800   2.754   0.302   4.135
   75POPE  H18S 7801   2.609   0.352   4.227
   75POPE  H18T 7802   2.635   0.418   4.064
   75POPE   C33 7803   2.366  -0.217   2.729
   75POPE   H3X 7804   2.314  -0.312   2.709
   75POPE   H3Y 7805   2.307  -0.154   2.799
   75POPE   C34 7806   2.497  -0.253   2.799
   75POPE   H4X 7807   2.565  -0.166   2.793
   75POPE   H4Y 7808   2.546  -0.338   2.744
   75POPE   C35 7809   2.479  -0.293   2.947
   75POPE   H5X 7810   2.579  -0.298   2.995
   75POPE   H5Y 7811   2.435  -0.395   2.952
   75POPE   C36 7812   2.391  -0.199   3.031
   75POPE   H6X 7813   2.288  -0.194   2.992
   75POPE   H6Y 7814   2.436  -0.097   3.028
   75POPE   C37 7815   2.381  -0.246   3.176
   75POPE   H7X 7816   2.483  -0.273   3.207
   75POPE   H7Y 7817   2.320  -0.339   3.182
   75POPE   C38 7818   2.320  -0.139   3.269
   75POPE   H8X 7819   2.212  -0.128   3.246
   75POPE   H8Y 7820   2.368  -0.041   3.249
   75POPE   C39 7821   2.339  -0.175   3.416
   75POPE   H9X 7822   2.294  -0.276   3.434
   75POPE   H9Y 7823   2.284  -0.102   3.480
   75POPE  C310 7824   2.486  -0.176   3.458
   75POPE  H10X 7825   2.519  -0.071   3.471
   75POPE  H10Y 7826   2.551  -0.225   3.383
   75POPE  C311 7827   2.512  -0.247   3.588
   75POPE  H11X 7828   2.622  -0.254   3.604
   75POPE  H11Y 7829   2.470  -0.350   3.584
   75POPE  C312 7830   2.450  -0.168   3.701
   75POPE  H12X 7831   2.339  -0.177   3.696
   75POPE  H12Y 7832   2.475  -0.060   3.692
   75POPE  C313 7833   2.503  -0.224   3.831
   75POPE  H13X 7834   2.605  -0.185   3.852
   75POPE  H13Y 7835   2.512  -0.335   3.818
   75POPE  C314 7836   2.407  -0.199   3.946
   75POPE  H14X 7837   2.302  -0.198   3.910
   75POPE  H14Y 7838   2.428  -0.098   3.990
   75POPE  C315 7839   2.421  -0.309   4.050
   75POPE  H15X 7840   2.528  -0.330   4.072
   75POPE  H15Y 7841   2.380  -0.403   4.009
   75POPE  C316 7842   2.350  -0.269   4.178
   75POPE  H16X 7843   2.395  -0.178   4.222
   75POPE  H16Y 7844   2.353  -0.350   4.253
   75POPE  H16Z 7845   2.244  -0.244   4.154
   76POPE     N 7846   1.272   7.146   2.543
   76POPE   HN1 7847   1.192   7.093   2.498
   76POPE   HN2 7848   1.325   7.078   2.598
   76POPE   HN3 7849   1.222   7.214   2.603
   76POPE   C12 7850   1.346   7.206   2.427
   76POPE  H12A 7851   1.424   7.133   2.395
   76POPE  H12B 7852   1.392   7.301   2.457
   76POPE   C11 7853   1.247   7.223   2.311
   76POPE  H11A 7854   1.306   7.237   2.219
   76POPE  H11B 7855   1.187   7.316   2.326
   76POPE     P 7856   1.189   6.994   2.200
   76POPE   O13 7857   1.336   6.974   2.204
   76POPE   O14 7858   1.123   7.023   2.070
   76POPE   O11 7859   1.118   6.873   2.272
   76POPE   O12 7860   1.159   7.111   2.302
   76POPE    C1 7861   0.978   6.848   2.255
   76POPE    HA 7862   0.959   6.738   2.264
   76POPE    HB 7863   0.941   6.878   2.154
   76POPE    C2 7864   0.889   6.918   2.362
   76POPE    HS 7865   0.911   7.027   2.355
   76POPE   O21 7866   0.921   6.865   2.490
   76POPE   C21 7867   0.981   6.941   2.578
   76POPE   O22 7868   1.033   7.049   2.561
   76POPE   C22 7869   0.975   6.868   2.710
   76POPE   H2R 7870   1.057   6.794   2.711
   76POPE   H2S 7871   0.878   6.815   2.714
   76POPE    C3 7872   0.737   6.895   2.335
   76POPE    HX 7873   0.720   6.788   2.308
   76POPE    HY 7874   0.711   6.957   2.247
   76POPE   O31 7875   0.649   6.936   2.443
   76POPE   C31 7876   0.624   6.849   2.537
   76POPE   O32 7877   0.683   6.745   2.559
   76POPE   C32 7878   0.506   6.895   2.622
   76POPE   H2X 7879   0.415   6.841   2.586
   76POPE   H2Y 7880   0.495   7.002   2.601
   76POPE   C23 7881   0.983   6.959   2.834
   76POPE   H3R 7882   0.898   7.031   2.834
   76POPE   H3S 7883   1.078   7.017   2.833
   76POPE   C24 7884   0.976   6.871   2.958
   76POPE   H4R 7885   1.049   6.787   2.946
   76POPE   H4S 7886   0.875   6.825   2.967
   76POPE   C25 7887   1.012   6.945   3.086
   76POPE   H5R 7888   0.938   7.025   3.109
   76POPE   H5S 7889   1.110   6.996   3.070
   76POPE   C26 7890   1.027   6.849   3.205
   76POPE   H6R 7891   1.076   6.755   3.170
   76POPE   H6S 7892   0.927   6.821   3.244
   76POPE   C27 7893   1.113   6.911   3.315
   76POPE   H7R 7894   1.067   7.009   3.341
   76POPE   H7S 7895   1.214   6.931   3.274
   76POPE   C28 7896   1.125   6.823   3.441
   76POPE   H8R 7897   1.171   6.725   3.422
   76POPE   H8S 7898   1.022   6.798   3.476
   76POPE   C29 7899   1.204   6.901   3.543
   76POPE   H91 7900   1.314   6.889   3.540
   76POPE  C210 7901   1.147   6.985   3.629
   76POPE  H101 7902   1.209   7.038   3.704
   76POPE  C211 7903   1.000   7.012   3.635
   76POPE  H11R 7904   0.944   6.959   3.557
   76POPE  H11S 7905   0.980   7.118   3.611
   76POPE  C212 7906   0.942   6.964   3.770
   76POPE  H12R 7907   0.837   7.001   3.778
   76POPE  H12S 7908   0.999   7.006   3.856
   76POPE  C213 7909   0.942   6.812   3.778
   76POPE  H13R 7910   1.046   6.773   3.772
   76POPE  H13S 7911   0.889   6.776   3.687
   76POPE  C214 7912   0.875   6.757   3.904
   76POPE  H14R 7913   0.781   6.813   3.923
   76POPE  H14S 7914   0.943   6.774   3.990
   76POPE  C215 7915   0.842   6.608   3.890
   76POPE  H15R 7916   0.814   6.567   3.990
   76POPE  H15S 7917   0.934   6.556   3.857
   76POPE  C216 7918   0.728   6.580   3.791
   76POPE  H16R 7919   0.750   6.629   3.694
   76POPE  H16S 7920   0.632   6.622   3.829
   76POPE  C217 7921   0.715   6.430   3.763
   76POPE  H17R 7922   0.819   6.394   3.755
   76POPE  H17S 7923   0.665   6.411   3.665
   76POPE  C218 7924   0.649   6.348   3.873
   76POPE  H18R 7925   0.662   6.398   3.971
   76POPE  H18S 7926   0.695   6.247   3.880
   76POPE  H18T 7927   0.541   6.335   3.853
   76POPE   C33 7928   0.529   6.871   2.772
   76POPE   H3X 7929   0.633   6.836   2.788
   76POPE   H3Y 7930   0.458   6.796   2.811
   76POPE   C34 7931   0.503   6.984   2.869
   76POPE   H4X 7932   0.396   6.994   2.893
   76POPE   H4Y 7933   0.526   7.081   2.827
   76POPE   C35 7934   0.572   6.953   3.000
   76POPE   H5X 7935   0.652   7.028   3.017
   76POPE   H5Y 7936   0.621   6.852   2.997
   76POPE   C36 7937   0.474   6.953   3.116
   76POPE   H6X 7938   0.429   6.852   3.127
   76POPE   H6Y 7939   0.389   7.023   3.097
   76POPE   C37 7940   0.545   6.999   3.242
   76POPE   H7X 7941   0.470   7.001   3.324
   76POPE   H7Y 7942   0.582   7.101   3.222
   76POPE   C38 7943   0.668   6.916   3.279
   76POPE   H8X 7944   0.744   6.924   3.198
   76POPE   H8Y 7945   0.641   6.809   3.288
   76POPE   C39 7946   0.734   6.964   3.409
   76POPE   H9X 7947   0.786   7.061   3.392
   76POPE   H9Y 7948   0.808   6.887   3.437
   76POPE  C310 7949   0.637   6.984   3.525
   76POPE  H10X 7950   0.561   7.059   3.497
   76POPE  H10Y 7951   0.690   7.024   3.614
   76POPE  C311 7952   0.561   6.857   3.564
   76POPE  H11X 7953   0.626   6.795   3.629
   76POPE  H11Y 7954   0.538   6.796   3.474
   76POPE  C312 7955   0.429   6.891   3.634
   76POPE  H12X 7956   0.392   6.800   3.681
   76POPE  H12Y 7957   0.353   6.922   3.561
   76POPE  C313 7958   0.438   6.994   3.747
   76POPE  H13X 7959   0.337   7.004   3.793
   76POPE  H13Y 7960   0.467   7.092   3.706
   76POPE  C314 7961   0.537   6.943   3.853
   76POPE  H14X 7962   0.635   6.921   3.806
   76POPE  H14Y 7963   0.496   6.846   3.891
   76POPE  C315 7964   0.559   7.036   3.971
   76POPE  H15X 7965   0.468   7.097   3.988
   76POPE  H15Y 7966   0.642   7.107   3.947
   76POPE  C316 7967   0.591   6.958   4.099
   76POPE  H16X 7968   0.588   7.026   4.186
   76POPE  H16Y 7969   0.692   6.912   4.092
   76POPE  H16Z 7970   0.517   6.876   4.114
   77POPE     N 7971   0.397   1.432   2.580
   77POPE   HN1 7972   0.339   1.356   2.534
   77POPE   HN2 7973   0.487   1.389   2.608
   77POPE   HN3 7974   0.343   1.467   2.661
   77POPE   C12 7975   0.420   1.535   2.474
   77POPE  H12A 7976   0.449   1.630   2.523
   77POPE  H12B 7977   0.325   1.549   2.418
   77POPE   C11 7978   0.532   1.490   2.376
   77POPE  H11A 7979   0.631   1.512   2.423
   77POPE  H11B 7980   0.523   1.552   2.284
   77POPE     P 7981   0.402   1.293   2.264
   77POPE   O13 7982   0.437   1.164   2.202
   77POPE   O14 7983   0.343   1.401   2.182
   77POPE   O11 7984   0.309   1.269   2.390
   77POPE   O12 7985   0.527   1.350   2.344
   77POPE    C1 7986   0.322   1.145   2.461
   77POPE    HA 7987   0.420   1.143   2.514
   77POPE    HB 7988   0.319   1.056   2.394
   77POPE    C2 7989   0.205   1.132   2.562
   77POPE    HS 7990   0.118   1.099   2.500
   77POPE   O21 7991   0.189   1.263   2.620
   77POPE   C21 7992   0.070   1.317   2.603
   77POPE   O22 7993  -0.027   1.262   2.555
   77POPE   C22 7994   0.072   1.458   2.659
   77POPE   H2R 7995  -0.023   1.507   2.625
   77POPE   H2S 7996   0.154   1.519   2.620
   77POPE    C3 7997   0.219   1.026   2.677
   77POPE    HX 7998   0.248   0.926   2.637
   77POPE    HY 7999   0.117   1.012   2.720
   77POPE   O31 8000   0.307   1.075   2.782
   77POPE   C31 8001   0.434   1.052   2.757
   77POPE   O32 8002   0.477   0.980   2.670
   77POPE   C32 8003   0.520   1.149   2.838
   77POPE   H2X 8004   0.517   1.119   2.945
   77POPE   H2Y 8005   0.480   1.251   2.827
   77POPE   C23 8006   0.071   1.451   2.813
   77POPE   H3R 8007  -0.005   1.375   2.840
   77POPE   H3S 8008   0.037   1.549   2.854
   77POPE   C24 8009   0.201   1.411   2.883
   77POPE   H4R 8010   0.284   1.481   2.859
   77POPE   H4S 8011   0.231   1.308   2.853
   77POPE   C25 8012   0.178   1.411   3.034
   77POPE   H5R 8013   0.077   1.369   3.055
   77POPE   H5S 8014   0.180   1.514   3.075
   77POPE   C26 8015   0.269   1.319   3.115
   77POPE   H6R 8016   0.375   1.347   3.098
   77POPE   H6S 8017   0.255   1.214   3.083
   77POPE   C27 8018   0.235   1.332   3.263
   77POPE   H7R 8019   0.125   1.321   3.280
   77POPE   H7S 8020   0.261   1.436   3.294
   77POPE   C28 8021   0.315   1.232   3.347
   77POPE   H8R 8022   0.348   1.284   3.438
   77POPE   H8S 8023   0.408   1.205   3.292
   77POPE   C29 8024   0.240   1.107   3.381
   77POPE   H91 8025   0.180   1.062   3.300
   77POPE  C210 8026   0.239   1.053   3.503
   77POPE  H101 8027   0.181   0.961   3.520
   77POPE  C211 8028   0.310   1.105   3.626
   77POPE  H11R 8029   0.348   1.209   3.618
   77POPE  H11S 8030   0.400   1.044   3.648
   77POPE  C212 8031   0.208   1.100   3.739
   77POPE  H12R 8032   0.260   1.102   3.836
   77POPE  H12S 8033   0.154   1.003   3.738
   77POPE  C213 8034   0.103   1.212   3.730
   77POPE  H13R 8035   0.020   1.188   3.800
   77POPE  H13S 8036   0.060   1.213   3.627
   77POPE  C214 8037   0.153   1.352   3.763
   77POPE  H14R 8038   0.071   1.423   3.736
   77POPE  H14S 8039   0.240   1.379   3.700
   77POPE  C215 8040   0.183   1.373   3.912
   77POPE  H15R 8041   0.107   1.318   3.972
   77POPE  H15S 8042   0.170   1.481   3.934
   77POPE  C216 8043   0.323   1.331   3.959
   77POPE  H16R 8044   0.400   1.364   3.885
   77POPE  H16S 8045   0.332   1.221   3.968
   77POPE  C217 8046   0.355   1.389   4.096
   77POPE  H17R 8047   0.353   1.500   4.091
   77POPE  H17S 8048   0.457   1.356   4.123
   77POPE  C218 8049   0.257   1.341   4.203
   77POPE  H18R 8050   0.282   1.383   4.302
   77POPE  H18S 8051   0.262   1.230   4.211
   77POPE  H18T 8052   0.153   1.371   4.179
   77POPE   C33 8053   0.663   1.140   2.781
   77POPE   H3X 8054   0.664   1.134   2.670
   77POPE   H3Y 8055   0.701   1.044   2.820
   77POPE   C34 8056   0.759   1.253   2.819
   77POPE   H4X 8057   0.707   1.349   2.800
   77POPE   H4Y 8058   0.848   1.249   2.752
   77POPE   C35 8059   0.809   1.244   2.963
   77POPE   H5X 8060   0.897   1.176   2.970
   77POPE   H5Y 8061   0.730   1.197   3.025
   77POPE   C36 8062   0.847   1.381   3.019
   77POPE   H6X 8063   0.800   1.462   2.957
   77POPE   H6Y 8064   0.956   1.396   3.010
   77POPE   C37 8065   0.801   1.400   3.163
   77POPE   H7X 8066   0.846   1.493   3.204
   77POPE   H7Y 8067   0.837   1.315   3.225
   77POPE   C38 8068   0.648   1.410   3.170
   77POPE   H8X 8069   0.602   1.320   3.124
   77POPE   H8Y 8070   0.614   1.499   3.112
   77POPE   C39 8071   0.597   1.419   3.313
   77POPE   H9X 8072   0.638   1.337   3.376
   77POPE   H9Y 8073   0.487   1.407   3.307
   77POPE  C310 8074   0.620   1.555   3.378
   77POPE  H10X 8075   0.581   1.633   3.308
   77POPE  H10Y 8076   0.728   1.574   3.392
   77POPE  C311 8077   0.546   1.568   3.511
   77POPE  H11X 8078   0.580   1.663   3.557
   77POPE  H11Y 8079   0.575   1.484   3.578
   77POPE  C312 8080   0.392   1.570   3.498
   77POPE  H12X 8081   0.356   1.465   3.502
   77POPE  H12Y 8082   0.363   1.613   3.399
   77POPE  C313 8083   0.316   1.645   3.608
   77POPE  H13X 8084   0.210   1.609   3.613
   77POPE  H13Y 8085   0.311   1.752   3.581
   77POPE  C314 8086   0.380   1.631   3.746
   77POPE  H14X 8087   0.490   1.626   3.739
   77POPE  H14Y 8088   0.350   1.536   3.794
   77POPE  C315 8089   0.348   1.748   3.836
   77POPE  H15X 8090   0.249   1.735   3.884
   77POPE  H15Y 8091   0.344   1.841   3.774
   77POPE  C316 8092   0.457   1.767   3.941
   77POPE  H16X 8093   0.473   1.876   3.957
   77POPE  H16Y 8094   0.554   1.725   3.908
   77POPE  H16Z 8095   0.429   1.719   4.037
   78POPE     N 8096   7.444   1.377   2.213
   78POPE   HN1 8097   7.468   1.453   2.147
   78POPE   HN2 8098   7.366   1.320   2.175
   78POPE   HN3 8099   7.409   1.412   2.304
   78POPE   C12 8100   7.555   1.279   2.240
   78POPE  H12A 8101   7.642   1.335   2.280
   78POPE  H12B 8102   7.582   1.231   2.144
   78POPE   C11 8103   7.506   1.174   2.341
   78POPE  H11A 8104   7.492   1.226   2.439
   78POPE  H11B 8105   7.585   1.098   2.356
   78POPE     P 8106   7.252   1.131   2.380
   78POPE   O13 8107   7.278   1.093   2.521
   78POPE   O14 8108   7.141   1.074   2.304
   78POPE   O11 8109   7.248   1.289   2.365
   78POPE   O12 8110   7.386   1.110   2.298
   78POPE    C1 8111   7.125   1.358   2.334
   78POPE    HA 8112   7.045   1.292   2.290
   78POPE    HB 8113   7.144   1.438   2.259
   78POPE    C2 8114   7.063   1.428   2.457
   78POPE    HS 8115   6.984   1.498   2.423
   78POPE   O21 8116   7.170   1.503   2.514
   78POPE   C21 8117   7.168   1.516   2.644
   78POPE   O22 8118   7.070   1.530   2.714
   78POPE   C22 8119   7.314   1.505   2.687
   78POPE   H2R 8120   7.343   1.604   2.720
   78POPE   H2S 8121   7.379   1.481   2.600
   78POPE    C3 8122   7.000   1.320   2.552
   78POPE    HX 8123   6.956   1.240   2.488
   78POPE    HY 8124   6.917   1.369   2.610
   78POPE   O31 8125   7.101   1.266   2.640
   78POPE   C31 8126   7.062   1.170   2.718
   78POPE   O32 8127   6.949   1.126   2.726
   78POPE   C32 8128   7.175   1.125   2.809
   78POPE   H2X 8129   7.162   1.177   2.907
   78POPE   H2Y 8130   7.271   1.157   2.763
   78POPE   C23 8131   7.345   1.411   2.804
   78POPE   H3R 8132   7.392   1.319   2.761
   78POPE   H3S 8133   7.254   1.383   2.861
   78POPE   C24 8134   7.443   1.481   2.897
   78POPE   H4R 8135   7.395   1.565   2.951
   78POPE   H4S 8136   7.522   1.525   2.831
   78POPE   C25 8137   7.510   1.390   2.997
   78POPE   H5R 8138   7.607   1.437   3.023
   78POPE   H5S 8139   7.531   1.292   2.948
   78POPE   C26 8140   7.437   1.374   3.129
   78POPE   H6R 8141   7.329   1.351   3.112
   78POPE   H6S 8142   7.443   1.469   3.186
   78POPE   C27 8143   7.504   1.259   3.204
   78POPE   H7R 8144   7.476   1.264   3.311
   78POPE   H7S 8145   7.615   1.269   3.197
   78POPE   C28 8146   7.456   1.127   3.141
   78POPE   H8R 8147   7.411   1.146   3.041
   78POPE   H8S 8148   7.369   1.104   3.203
   78POPE   C29 8149   7.547   1.008   3.131
   78POPE   H91 8150   7.564   0.970   3.028
   78POPE  C210 8151   7.605   0.943   3.234
   78POPE  H101 8152   7.669   0.856   3.211
   78POPE  C211 8153   7.588   0.978   3.379
   78POPE  H11R 8154   7.540   1.077   3.392
   78POPE  H11S 8155   7.687   0.986   3.428
   78POPE  C212 8156   7.501   0.879   3.459
   78POPE  H12R 8157   7.551   0.781   3.469
   78POPE  H12S 8158   7.406   0.867   3.401
   78POPE  C213 8159   7.458   0.935   3.595
   78POPE  H13R 8160   7.381   0.869   3.641
   78POPE  H13S 8161   7.411   1.034   3.574
   78POPE  C214 8162   7.572   0.958   3.694
   78POPE  H14R 8163   7.642   1.031   3.649
   78POPE  H14S 8164   7.627   0.863   3.710
   78POPE  C215 8165   7.523   1.012   3.830
   78POPE  H15R 8166   7.612   1.033   3.894
   78POPE  H15S 8167   7.465   0.932   3.880
   78POPE  C216 8168   7.435   1.137   3.822
   78POPE  H16R 8169   7.335   1.104   3.787
   78POPE  H16S 8170   7.475   1.209   3.747
   78POPE  C217 8171   7.414   1.210   3.955
   78POPE  H17R 8172   7.396   1.134   4.035
   78POPE  H17S 8173   7.322   1.273   3.948
   78POPE  C218 8174   7.530   1.301   3.994
   78POPE  H18R 8175   7.543   1.383   3.920
   78POPE  H18S 8176   7.624   1.242   3.998
   78POPE  H18T 8177   7.514   1.346   4.094
   78POPE   C33 8178   7.178   0.972   2.827
   78POPE   H3X 8179   7.272   0.936   2.779
   78POPE   H3Y 8180   7.095   0.922   2.772
   78POPE   C34 8181   7.175   0.933   2.975
   78POPE   H4X 8182   7.259   0.984   3.025
   78POPE   H4Y 8183   7.190   0.823   2.978
   78POPE   C35 8184   7.042   0.965   3.044
   78POPE   H5X 8185   6.974   0.878   3.031
   78POPE   H5Y 8186   6.994   1.050   2.989
   78POPE   C36 8187   7.045   1.010   3.192
   78POPE   H6X 8188   6.946   0.980   3.235
   78POPE   H6Y 8189   7.051   1.120   3.198
   78POPE   C37 8190   7.152   0.949   3.284
   78POPE   H7X 8191   7.244   1.008   3.289
   78POPE   H7Y 8192   7.179   0.848   3.248
   78POPE   C38 8193   7.105   0.936   3.428
   78POPE   H8X 8194   7.178   0.881   3.492
   78POPE   H8Y 8195   7.019   0.873   3.413
   78POPE   C39 8196   7.045   1.058   3.500
   78POPE   H9X 8197   6.957   1.019   3.554
   78POPE   H9Y 8198   7.007   1.136   3.430
   78POPE  C310 8199   7.136   1.115   3.608
   78POPE  H10X 8200   7.181   1.211   3.574
   78POPE  H10Y 8201   7.219   1.043   3.625
   78POPE  C311 8202   7.066   1.129   3.743
   78POPE  H11X 8203   6.966   1.175   3.730
   78POPE  H11Y 8204   7.128   1.197   3.805
   78POPE  C312 8205   7.053   0.995   3.818
   78POPE  H12X 8206   7.156   0.963   3.847
   78POPE  H12Y 8207   7.010   0.917   3.752
   78POPE  C313 8208   6.969   1.004   3.947
   78POPE  H13X 8209   6.976   0.910   4.005
   78POPE  H13Y 8210   6.862   1.013   3.921
   78POPE  C314 8211   7.010   1.124   4.031
   78POPE  H14X 8212   6.959   1.211   3.985
   78POPE  H14Y 8213   7.119   1.139   4.026
   78POPE  C315 8214   6.970   1.123   4.178
   78POPE  H15X 8215   7.031   1.054   4.239
   78POPE  H15Y 8216   6.866   1.086   4.183
   78POPE  C316 8217   6.981   1.266   4.232
   78POPE  H16X 8218   6.957   1.275   4.339
   78POPE  H16Y 8219   6.911   1.329   4.175
   78POPE  H16Z 8220   7.084   1.306   4.215
   79POPE     N 8221   1.300   0.315   2.351
   79POPE   HN1 8222   1.239   0.400   2.351
   79POPE   HN2 8223   1.400   0.343   2.345
   79POPE   HN3 8224   1.287   0.264   2.260
   79POPE   C12 8225   1.278   0.221   2.466
   79POPE  H12A 8226   1.169   0.218   2.489
   79POPE  H12B 8227   1.332   0.264   2.554
   79POPE   C11 8228   1.328   0.078   2.437
   79POPE  H11A 8229   1.248   0.015   2.392
   79POPE  H11B 8230   1.355   0.032   2.534
   79POPE     P 8231   1.469   0.034   2.208
   79POPE   O13 8232   1.392   0.136   2.132
   79POPE   O14 8233   1.438  -0.111   2.191
   79POPE   O11 8234   1.625   0.057   2.200
   79POPE   O12 8235   1.444   0.078   2.357
   79POPE    C1 8236   1.697   0.126   2.304
   79POPE    HA 8237   1.637   0.208   2.351
   79POPE    HB 8238   1.786   0.175   2.261
   79POPE    C2 8239   1.749   0.031   2.415
   79POPE    HS 8240   1.824  -0.037   2.369
   79POPE   O21 8241   1.640  -0.040   2.475
   79POPE   C21 8242   1.651  -0.166   2.493
   79POPE   O22 8243   1.733  -0.243   2.448
   79POPE   C22 8244   1.547  -0.206   2.597
   79POPE   H2R 8245   1.578  -0.306   2.632
   79POPE   H2S 8246   1.447  -0.210   2.550
   79POPE    C3 8247   1.816   0.114   2.527
   79POPE    HX 8248   1.885   0.186   2.478
   79POPE    HY 8249   1.877   0.044   2.590
   79POPE   O31 8250   1.718   0.190   2.600
   79POPE   C31 8251   1.725   0.180   2.731
   79POPE   O32 8252   1.814   0.125   2.795
   79POPE   C32 8253   1.594   0.234   2.786
   79POPE   H2X 8254   1.515   0.158   2.779
   79POPE   H2Y 8255   1.564   0.316   2.718
   79POPE   C23 8256   1.550  -0.103   2.713
   79POPE   H3R 8257   1.489  -0.016   2.683
   79POPE   H3S 8258   1.656  -0.069   2.727
   79POPE   C24 8259   1.507  -0.155   2.849
   79POPE   H4R 8260   1.591  -0.218   2.883
   79POPE   H4S 8261   1.415  -0.216   2.843
   79POPE   C25 8262   1.494  -0.049   2.960
   79POPE   H5R 8263   1.576   0.024   2.946
   79POPE   H5S 8264   1.513  -0.097   3.059
   79POPE   C26 8265   1.355   0.013   2.962
   79POPE   H6R 8266   1.280  -0.069   2.953
   79POPE   H6S 8267   1.342   0.078   2.872
   79POPE   C27 8268   1.317   0.092   3.088
   79POPE   H7R 8269   1.402   0.148   3.132
   79POPE   H7S 8270   1.286   0.017   3.164
   79POPE   C28 8271   1.204   0.191   3.052
   79POPE   H8R 8272   1.133   0.133   2.989
   79POPE   H8S 8273   1.251   0.265   2.984
   79POPE   C29 8274   1.124   0.267   3.155
   79POPE   H91 8275   1.089   0.365   3.120
   79POPE  C210 8276   1.078   0.226   3.274
   79POPE  H101 8277   1.022   0.298   3.337
   79POPE  C211 8278   1.096   0.090   3.335
   79POPE  H11R 8279   1.110   0.012   3.258
   79POPE  H11S 8280   1.004   0.061   3.391
   79POPE  C212 8281   1.213   0.093   3.433
   79POPE  H12R 8282   1.300   0.151   3.394
   79POPE  H12S 8283   1.249  -0.011   3.453
   79POPE  C213 8284   1.163   0.151   3.565
   79POPE  H13R 8285   1.081   0.086   3.603
   79POPE  H13S 8286   1.121   0.253   3.549
   79POPE  C214 8287   1.273   0.159   3.669
   79POPE  H14R 8288   1.332   0.251   3.646
   79POPE  H14S 8289   1.340   0.071   3.664
   79POPE  C215 8290   1.213   0.170   3.809
   79POPE  H15R 8291   1.198   0.069   3.853
   79POPE  H15S 8292   1.113   0.212   3.793
   79POPE  C216 8293   1.297   0.260   3.898
   79POPE  H16R 8294   1.351   0.335   3.835
   79POPE  H16S 8295   1.372   0.196   3.947
   79POPE  C217 8296   1.222   0.341   4.004
   79POPE  H17R 8297   1.163   0.274   4.070
   79POPE  H17S 8298   1.151   0.410   3.953
   79POPE  C218 8299   1.319   0.425   4.085
   79POPE  H18R 8300   1.396   0.469   4.018
   79POPE  H18S 8301   1.371   0.362   4.160
   79POPE  H18T 8302   1.266   0.508   4.137
   79POPE   C33 8303   1.600   0.289   2.930
   79POPE   H3X 8304   1.705   0.303   2.967
   79POPE   H3Y 8305   1.550   0.221   3.003
   79POPE   C34 8306   1.527   0.422   2.927
   79POPE   H4X 8307   1.438   0.417   2.861
   79POPE   H4Y 8308   1.597   0.497   2.885
   79POPE   C35 8309   1.487   0.473   3.063
   79POPE   H5X 8310   1.463   0.386   3.126
   79POPE   H5Y 8311   1.396   0.533   3.055
   79POPE   C36 8312   1.602   0.562   3.111
   79POPE   H6X 8313   1.618   0.644   3.038
   79POPE   H6Y 8314   1.694   0.500   3.112
   79POPE   C37 8315   1.582   0.625   3.248
   79POPE   H7X 8316   1.506   0.705   3.243
   79POPE   H7Y 8317   1.677   0.674   3.277
   79POPE   C38 8318   1.544   0.522   3.355
   79POPE   H8X 8319   1.436   0.497   3.348
   79POPE   H8Y 8320   1.560   0.570   3.454
   79POPE   C39 8321   1.624   0.392   3.344
   79POPE   H9X 8322   1.730   0.416   3.321
   79POPE   H9Y 8323   1.587   0.325   3.263
   79POPE  C310 8324   1.614   0.313   3.472
   79POPE  H10X 8325   1.511   0.273   3.481
   79POPE  H10Y 8326   1.631   0.383   3.557
   79POPE  C311 8327   1.717   0.201   3.479
   79POPE  H11X 8328   1.815   0.238   3.441
   79POPE  H11Y 8329   1.685   0.116   3.416
   79POPE  C312 8330   1.736   0.157   3.625
   79POPE  H12X 8331   1.769   0.247   3.681
   79POPE  H12Y 8332   1.815   0.080   3.633
   79POPE  C313 8333   1.604   0.106   3.684
   79POPE  H13X 8334   1.571   0.014   3.630
   79POPE  H13Y 8335   1.528   0.185   3.669
   79POPE  C314 8336   1.606   0.081   3.835
   79POPE  H14X 8337   1.682   0.004   3.860
   79POPE  H14Y 8338   1.506   0.042   3.865
   79POPE  C315 8339   1.634   0.210   3.912
   79POPE  H15X 8340   1.568   0.292   3.879
   79POPE  H15Y 8341   1.739   0.243   3.894
   79POPE  C316 8342   1.614   0.188   4.061
   79POPE  H16X 8343   1.639   0.083   4.086
   79POPE  H16Y 8344   1.510   0.206   4.094
   79POPE  H16Z 8345   1.680   0.259   4.117
   80POPE     N 8346   6.653   7.175   2.165
   80POPE   HN1 8347   6.565   7.227   2.144
   80POPE   HN2 8348   6.646   7.078   2.126
   80POPE   HN3 8349   6.658   7.169   2.269
   80POPE   C12 8350   6.773   7.254   2.117
   80POPE  H12A 8351   6.772   7.257   2.006
   80POPE  H12B 8352   6.864   7.200   2.152
   80POPE   C11 8353   6.773   7.396   2.175
   80POPE  H11A 8354   6.692   7.457   2.126
   80POPE  H11B 8355   6.870   7.446   2.150
   80POPE     P 8356   6.644   7.459   2.397
   80POPE   O13 8357   6.534   7.359   2.401
   80POPE   O14 8358   6.622   7.586   2.326
   80POPE   O11 8359   6.709   7.479   2.539
   80POPE   O12 8360   6.761   7.389   2.317
   80POPE    C1 8361   6.850   7.464   2.555
   80POPE    HA 8362   6.881   7.519   2.647
   80POPE    HB 8363   6.907   7.511   2.472
   80POPE    C2 8364   6.890   7.316   2.572
   80POPE    HS 8365   6.822   7.252   2.511
   80POPE   O21 8366   6.886   7.287   2.713
   80POPE   C21 8367   6.784   7.214   2.751
   80POPE   O22 8368   6.695   7.171   2.680
   80POPE   C22 8369   6.797   7.182   2.899
   80POPE   H2R 8370   6.875   7.246   2.945
   80POPE   H2S 8371   6.830   7.077   2.905
   80POPE    C3 8372   7.033   7.291   2.519
   80POPE    HX 8373   7.032   7.304   2.409
   80POPE    HY 8374   7.068   7.187   2.540
   80POPE   O31 8375   7.120   7.389   2.576
   80POPE   C31 8376   7.161   7.364   2.700
   80POPE   O32 8377   7.162   7.258   2.758
   80POPE   C32 8378   7.199   7.498   2.759
   80POPE   H2X 8379   7.103   7.557   2.753
   80POPE   H2Y 8380   7.266   7.550   2.690
   80POPE   C23 8381   6.663   7.190   2.973
   80POPE   H3R 8382   6.639   7.092   3.019
   80POPE   H3S 8383   6.581   7.215   2.902
   80POPE   C24 8384   6.663   7.294   3.082
   80POPE   H4R 8385   6.732   7.267   3.165
   80POPE   H4S 8386   6.559   7.297   3.120
   80POPE   C25 8387   6.696   7.431   3.027
   80POPE   H5R 8388   6.672   7.436   2.918
   80POPE   H5S 8389   6.805   7.452   3.035
   80POPE   C26 8390   6.613   7.538   3.096
   80POPE   H6R 8391   6.512   7.535   3.049
   80POPE   H6S 8392   6.663   7.633   3.072
   80POPE   C27 8393   6.597   7.529   3.247
   80POPE   H7R 8394   6.553   7.432   3.279
   80POPE   H7S 8395   6.528   7.610   3.280
   80POPE   C28 8396   6.726   7.555   3.321
   80POPE   H8R 8397   6.802   7.483   3.285
   80POPE   H8S 8398   6.711   7.526   3.427
   80POPE   C29 8399   6.766   7.701   3.298
   80POPE   H91 8400   6.766   7.737   3.195
   80POPE  C210 8401   6.808   7.785   3.391
   80POPE  H101 8402   6.840   7.888   3.369
   80POPE  C211 8403   6.816   7.735   3.530
   80POPE  H11R 8404   6.878   7.796   3.596
   80POPE  H11S 8405   6.860   7.634   3.537
   80POPE  C212 8406   6.671   7.727   3.572
   80POPE  H12R 8407   6.596   7.695   3.496
   80POPE  H12S 8408   6.639   7.829   3.600
   80POPE  C213 8409   6.662   7.625   3.682
   80POPE  H13R 8410   6.763   7.593   3.717
   80POPE  H13S 8411   6.608   7.532   3.652
   80POPE  C214 8412   6.594   7.695   3.794
   80POPE  H14R 8413   6.489   7.672   3.787
   80POPE  H14S 8414   6.598   7.805   3.785
   80POPE  C215 8415   6.655   7.660   3.924
   80POPE  H15R 8416   6.604   7.728   3.996
   80POPE  H15S 8417   6.762   7.688   3.926
   80POPE  C216 8418   6.634   7.515   3.965
   80POPE  H16R 8419   6.710   7.445   3.927
   80POPE  H16S 8420   6.536   7.477   3.929
   80POPE  C217 8421   6.632   7.531   4.115
   80POPE  H17R 8422   6.525   7.552   4.131
   80POPE  H17S 8423   6.696   7.618   4.145
   80POPE  C218 8424   6.663   7.423   4.212
   80POPE  H18R 8425   6.576   7.355   4.212
   80POPE  H18S 8426   6.666   7.469   4.313
   80POPE  H18T 8427   6.759   7.370   4.194
   80POPE   C33 8428   7.244   7.516   2.908
   80POPE   H3X 8429   7.149   7.524   2.962
   80POPE   H3Y 8430   7.288   7.617   2.898
   80POPE   C34 8431   7.348   7.440   2.998
   80POPE   H4X 8432   7.447   7.440   2.952
   80POPE   H4Y 8433   7.315   7.336   3.014
   80POPE   C35 8434   7.372   7.516   3.133
   80POPE   H5X 8435   7.276   7.539   3.182
   80POPE   H5Y 8436   7.416   7.614   3.103
   80POPE   C36 8437   7.466   7.473   3.248
   80POPE   H6X 8438   7.464   7.554   3.325
   80POPE   H6Y 8439   7.568   7.470   3.208
   80POPE   C37 8440   7.451   7.340   3.320
   80POPE   H7X 8441   7.552   7.292   3.321
   80POPE   H7Y 8442   7.379   7.277   3.264
   80POPE   C38 8443   7.412   7.345   3.467
   80POPE   H8X 8444   7.316   7.397   3.470
   80POPE   H8Y 8445   7.486   7.400   3.529
   80POPE   C39 8446   7.385   7.204   3.518
   80POPE   H9X 8447   7.471   7.144   3.483
   80POPE   H9Y 8448   7.302   7.167   3.456
   80POPE  C310 8449   7.354   7.181   3.667
   80POPE  H10X 8450   7.430   7.230   3.731
   80POPE  H10Y 8451   7.364   7.071   3.684
   80POPE  C311 8452   7.214   7.222   3.716
   80POPE  H11X 8453   7.134   7.193   3.646
   80POPE  H11Y 8454   7.203   7.331   3.720
   80POPE  C312 8455   7.176   7.161   3.852
   80POPE  H12X 8456   7.237   7.071   3.873
   80POPE  H12Y 8457   7.070   7.128   3.847
   80POPE  C313 8458   7.185   7.262   3.966
   80POPE  H13X 8459   7.149   7.214   4.060
   80POPE  H13Y 8460   7.113   7.343   3.941
   80POPE  C314 8461   7.323   7.326   3.990
   80POPE  H14X 8462   7.358   7.384   3.902
   80POPE  H14Y 8463   7.396   7.243   4.006
   80POPE  C315 8464   7.322   7.414   4.117
   80POPE  H15X 8465   7.412   7.383   4.175
   80POPE  H15Y 8466   7.233   7.391   4.179
   80POPE  C316 8467   7.328   7.566   4.096
   80POPE  H16X 8468   7.227   7.611   4.100
   80POPE  H16Y 8469   7.375   7.594   4.000
   80POPE  H16Z 8470   7.379   7.616   4.178
   81POPS     N 8471   3.797   3.209   6.285
   81POPS   HN1 8472   3.846   3.194   6.195
   81POPS   HN2 8473   3.842   3.163   6.367
   81POPS   HN3 8474   3.698   3.176   6.279
   81POPS   C12 8475   3.784   3.355   6.309
   81POPS  H12A 8476   3.883   3.400   6.312
   81POPS   C13 8477   3.718   3.380   6.446
   81POPS  O13A 8478   3.683   3.283   6.519
   81POPS  O13B 8479   3.704   3.500   6.483
   81POPS   C11 8480   3.699   3.418   6.195
   81POPS  H11A 8481   3.680   3.525   6.221
   81POPS  H11B 8482   3.600   3.366   6.190
   81POPS     P 8483   3.687   3.450   5.933
   81POPS   O13 8484   3.785   3.469   5.824
   81POPS   O14 8485   3.594   3.561   5.964
   81POPS   O12 8486   3.766   3.410   6.068
   81POPS   O11 8487   3.602   3.319   5.910
   81POPS    C1 8488   3.647   3.189   5.942
   81POPS    HA 8489   3.568   3.141   6.004
   81POPS    HB 8490   3.741   3.187   6.002
   81POPS    C2 8491   3.670   3.101   5.817
   81POPS    HS 8492   3.654   2.998   5.855
   81POPS   O21 8493   3.803   3.123   5.768
   81POPS   C21 8494   3.862   3.013   5.729
   81POPS   O22 8495   3.828   2.900   5.758
   81POPS   C22 8496   3.983   3.046   5.645
   81POPS   H2R 8497   4.068   3.070   5.713
   81POPS   H2S 8498   3.955   3.133   5.582
   81POPS    C3 8499   3.571   3.122   5.698
   81POPS    HX 8500   3.468   3.128   5.740
   81POPS    HY 8501   3.579   3.033   5.632
   81POPS   O31 8502   3.601   3.237   5.618
   81POPS   C31 8503   3.513   3.259   5.522
   81POPS   O32 8504   3.415   3.192   5.500
   81POPS   C32 8505   3.556   3.378   5.440
   81POPS   H2X 8506   3.561   3.348   5.334
   81POPS   H2Y 8507   3.657   3.409   5.474
   81POPS   C23 8508   4.024   2.937   5.548
   81POPS   H3R 8509   4.011   2.841   5.598
   81POPS   H3S 8510   4.133   2.942   5.535
   81POPS   C24 8511   3.952   2.953   5.413
   81POPS   H4R 8512   3.965   2.865   5.348
   81POPS   H4S 8513   4.002   3.032   5.354
   81POPS   C25 8514   3.803   2.991   5.416
   81POPS   H5R 8515   3.784   3.082   5.475
   81POPS   H5S 8516   3.743   2.908   5.460
   81POPS   C26 8517   3.757   3.021   5.273
   81POPS   H6R 8518   3.809   2.951   5.204
   81POPS   H6S 8519   3.789   3.124   5.246
   81POPS   C27 8520   3.607   3.003   5.251
   81POPS   H7R 8521   3.546   3.075   5.310
   81POPS   H7S 8522   3.581   2.900   5.285
   81POPS   C28 8523   3.572   3.005   5.103
   81POPS   H8R 8524   3.467   2.972   5.087
   81POPS   H8S 8525   3.638   2.926   5.062
   81POPS   C29 8526   3.598   3.139   5.041
   81POPS   H91 8527   3.524   3.216   5.067
   81POPS  C210 8528   3.701   3.171   4.962
   81POPS  H101 8529   3.705   3.274   4.923
   81POPS  C211 8530   3.814   3.082   4.916
   81POPS  H11R 8531   3.817   3.081   4.805
   81POPS  H11S 8532   3.801   2.976   4.947
   81POPS  C212 8533   3.954   3.126   4.967
   81POPS  H12R 8534   4.029   3.057   4.923
   81POPS  H12S 8535   3.958   3.112   5.077
   81POPS  C213 8536   3.993   3.271   4.933
   81POPS  H13R 8537   4.102   3.285   4.952
   81POPS  H13S 8538   3.939   3.338   5.004
   81POPS  C214 8539   3.961   3.318   4.790
   81POPS  H14R 8540   3.991   3.424   4.779
   81POPS  H14S 8541   3.851   3.313   4.775
   81POPS  C215 8542   4.025   3.236   4.677
   81POPS  H15R 8543   4.021   3.128   4.702
   81POPS  H15S 8544   4.132   3.264   4.666
   81POPS  C216 8545   3.952   3.256   4.542
   81POPS  H16R 8546   3.845   3.228   4.556
   81POPS  H16S 8547   3.995   3.187   4.466
   81POPS  C217 8548   3.959   3.401   4.491
   81POPS  H17R 8549   4.066   3.429   4.477
   81POPS  H17S 8550   3.918   3.468   4.569
   81POPS  C218 8551   3.882   3.425   4.361
   81POPS  H18R 8552   3.931   3.372   4.276
   81POPS  H18S 8553   3.879   3.534   4.338
   81POPS  H18T 8554   3.778   3.390   4.371
   81POPS   C33 8555   3.457   3.495   5.458
   81POPS   H3X 8556   3.424   3.502   5.564
   81POPS   H3Y 8557   3.367   3.477   5.396
   81POPS   C34 8558   3.521   3.629   5.421
   81POPS   H4X 8559   3.594   3.660   5.499
   81POPS   H4Y 8560   3.441   3.706   5.420
   81POPS   C35 8561   3.591   3.629   5.284
   81POPS   H5X 8562   3.593   3.735   5.257
   81POPS   H5Y 8563   3.530   3.577   5.207
   81POPS   C36 8564   3.736   3.578   5.283
   81POPS   H6X 8565   3.739   3.474   5.243
   81POPS   H6Y 8566   3.772   3.573   5.389
   81POPS   C37 8567   3.839   3.664   5.208
   81POPS   H7X 8568   3.934   3.607   5.204
   81POPS   H7Y 8569   3.857   3.756   5.269
   81POPS   C38 8570   3.804   3.709   5.065
   81POPS   H8X 8571   3.876   3.787   5.032
   81POPS   H8Y 8572   3.704   3.756   5.067
   81POPS   C39 8573   3.797   3.600   4.959
   81POPS   H9X 8574   3.770   3.502   5.004
   81POPS   H9Y 8575   3.896   3.590   4.909
   81POPS  C310 8576   3.689   3.640   4.858
   81POPS  H10X 8577   3.702   3.747   4.831
   81POPS  H10Y 8578   3.590   3.630   4.909
   81POPS  C311 8579   3.689   3.558   4.731
   81POPS  H11X 8580   3.690   3.450   4.757
   81POPS  H11Y 8581   3.779   3.581   4.670
   81POPS  C312 8582   3.563   3.586   4.649
   81POPS  H12X 8583   3.559   3.691   4.615
   81POPS  H12Y 8584   3.476   3.569   4.717
   81POPS  C313 8585   3.549   3.490   4.530
   81POPS  H13X 8586   3.598   3.394   4.558
   81POPS  H13Y 8587   3.603   3.531   4.442
   81POPS  C314 8588   3.402   3.465   4.499
   81POPS  H14X 8589   3.353   3.561   4.469
   81POPS  H14Y 8590   3.352   3.430   4.592
   81POPS  C315 8591   3.380   3.359   4.391
   81POPS  H15X 8592   3.413   3.398   4.292
   81POPS  H15Y 8593   3.270   3.341   4.388
   81POPS  C316 8594   3.451   3.227   4.417
   81POPS  H16X 8595   3.561   3.238   4.409
   81POPS  H16Y 8596   3.417   3.148   4.347
   81POPS  H16Z 8597   3.427   3.195   4.520
   82POPS     N 8598   4.841   2.216   6.425
   82POPS   HN1 8599   4.942   2.211   6.444
   82POPS   HN2 8600   4.791   2.224   6.517
   82POPS   HN3 8601   4.807   2.129   6.379
   82POPS   C12 8602   4.805   2.333   6.337
   82POPS  H12A 8603   4.840   2.424   6.383
   82POPS   C13 8604   4.651   2.344   6.319
   82POPS  O13A 8605   4.586   2.236   6.328
   82POPS  O13B 8606   4.596   2.458   6.306
   82POPS   C11 8607   4.877   2.307   6.202
   82POPS  H11A 8608   4.841   2.211   6.158
   82POPS  H11B 8609   4.986   2.296   6.222
   82POPS     P 8610   4.944   2.416   5.977
   82POPS   O13 8611   5.078   2.462   6.018
   82POPS   O14 8612   4.877   2.490   5.869
   82POPS   O12 8613   4.853   2.412   6.108
   82POPS   O11 8614   4.949   2.261   5.942
   82POPS    C1 8615   4.860   2.205   5.843
   82POPS    HA 8616   4.791   2.282   5.800
   82POPS    HB 8617   4.795   2.129   5.891
   82POPS    C2 8618   4.937   2.139   5.725
   82POPS    HS 8619   4.981   2.044   5.766
   82POPS   O21 8620   5.041   2.228   5.683
   82POPS   C21 8621   5.136   2.170   5.613
   82POPS   O22 8622   5.137   2.053   5.579
   82POPS   C22 8623   5.244   2.270   5.575
   82POPS   H2R 8624   5.323   2.214   5.521
   82POPS   H2S 8625   5.288   2.313   5.667
   82POPS    C3 8626   4.842   2.103   5.606
   82POPS    HX 8627   4.777   2.018   5.637
   82POPS    HY 8628   4.901   2.069   5.518
   82POPS   O31 8629   4.768   2.219   5.570
   82POPS   C31 8630   4.640   2.204   5.538
   82POPS   O32 8631   4.589   2.102   5.497
   82POPS   C32 8632   4.566   2.335   5.565
   82POPS   H2X 8633   4.509   2.324   5.659
   82POPS   H2Y 8634   4.494   2.349   5.483
   82POPS   C23 8635   5.186   2.382   5.487
   82POPS   H3R 8636   5.131   2.452   5.553
   82POPS   H3S 8637   5.112   2.343   5.414
   82POPS   C24 8638   5.296   2.458   5.411
   82POPS   H4R 8639   5.369   2.498   5.484
   82POPS   H4S 8640   5.247   2.545   5.361
   82POPS   C25 8641   5.367   2.377   5.301
   82POPS   H5R 8642   5.439   2.305   5.346
   82POPS   H5S 8643   5.425   2.449   5.239
   82POPS   C26 8644   5.269   2.306   5.209
   82POPS   H6R 8645   5.195   2.382   5.175
   82POPS   H6S 8646   5.213   2.228   5.265
   82POPS   C27 8647   5.333   2.242   5.086
   82POPS   H7R 8648   5.400   2.158   5.114
   82POPS   H7S 8649   5.398   2.316   5.037
   82POPS   C28 8650   5.222   2.196   4.989
   82POPS   H8R 8651   5.261   2.196   4.885
   82POPS   H8S 8652   5.138   2.268   4.992
   82POPS   C29 8653   5.175   2.060   5.033
   82POPS   H91 8654   5.129   2.056   5.133
   82POPS  C210 8655   5.181   1.948   4.960
   82POPS  H101 8656   5.141   1.855   5.002
   82POPS  C211 8657   5.236   1.937   4.820
   82POPS  H11R 8658   5.273   1.834   4.801
   82POPS  H11S 8659   5.321   2.006   4.802
   82POPS  C212 8660   5.123   1.969   4.721
   82POPS  H12R 8661   5.159   1.951   4.617
   82POPS  H12S 8662   5.097   2.077   4.730
   82POPS  C213 8663   4.995   1.886   4.745
   82POPS  H13R 8664   4.943   1.925   4.836
   82POPS  H13S 8665   5.027   1.782   4.768
   82POPS  C214 8666   4.894   1.882   4.629
   82POPS  H14R 8667   4.813   1.813   4.662
   82POPS  H14S 8668   4.942   1.837   4.539
   82POPS  C215 8669   4.827   2.016   4.593
   82POPS  H15R 8670   4.798   2.069   4.686
   82POPS  H15S 8671   4.734   1.992   4.537
   82POPS  C216 8672   4.912   2.107   4.504
   82POPS  H16R 8673   4.932   2.055   4.408
   82POPS  H16S 8674   5.010   2.126   4.551
   82POPS  C217 8675   4.850   2.245   4.480
   82POPS  H17R 8676   4.923   2.308   4.423
   82POPS  H17S 8677   4.838   2.291   4.580
   82POPS  C218 8678   4.717   2.249   4.406
   82POPS  H18R 8679   4.640   2.185   4.454
   82POPS  H18S 8680   4.731   2.219   4.302
   82POPS  H18T 8681   4.680   2.352   4.395
   82POPS   C33 8682   4.660   2.456   5.579
   82POPS   H3X 8683   4.731   2.443   5.663
   82POPS   H3Y 8684   4.600   2.546   5.605
   82POPS   C34 8685   4.737   2.480   5.449
   82POPS   H4X 8686   4.804   2.395   5.424
   82POPS   H4Y 8687   4.805   2.567   5.464
   82POPS   C35 8688   4.642   2.505   5.332
   82POPS   H5X 8689   4.536   2.513   5.367
   82POPS   H5Y 8690   4.644   2.420   5.260
   82POPS   C36 8691   4.677   2.636   5.264
   82POPS   H6X 8692   4.724   2.707   5.336
   82POPS   H6Y 8693   4.584   2.684   5.227
   82POPS   C37 8694   4.773   2.613   5.151
   82POPS   H7X 8695   4.843   2.529   5.173
   82POPS   H7Y 8696   4.832   2.705   5.134
   82POPS   C38 8697   4.691   2.588   5.027
   82POPS   H8X 8698   4.630   2.680   5.009
   82POPS   H8Y 8699   4.620   2.504   5.043
   82POPS   C39 8700   4.775   2.563   4.904
   82POPS   H9X 8701   4.828   2.465   4.912
   82POPS   H9Y 8702   4.852   2.643   4.892
   82POPS  C310 8703   4.676   2.565   4.790
   82POPS  H10X 8704   4.617   2.659   4.796
   82POPS  H10Y 8705   4.605   2.480   4.803
   82POPS  C311 8706   4.737   2.560   4.651
   82POPS  H11X 8707   4.806   2.473   4.645
   82POPS  H11Y 8708   4.795   2.652   4.633
   82POPS  C312 8709   4.621   2.550   4.553
   82POPS  H12X 8710   4.534   2.603   4.599
   82POPS  H12Y 8711   4.592   2.443   4.546
   82POPS  C313 8712   4.646   2.613   4.415
   82POPS  H13X 8713   4.751   2.589   4.390
   82POPS  H13Y 8714   4.638   2.723   4.428
   82POPS  C314 8715   4.552   2.570   4.300
   82POPS  H14X 8716   4.504   2.474   4.327
   82POPS  H14Y 8717   4.610   2.550   4.208
   82POPS  C315 8718   4.446   2.675   4.260
   82POPS  H15X 8719   4.412   2.727   4.352
   82POPS  H15Y 8720   4.358   2.623   4.217
   82POPS  C316 8721   4.496   2.778   4.159
   82POPS  H16X 8722   4.427   2.865   4.153
   82POPS  H16Y 8723   4.505   2.734   4.058
   82POPS  H16Z 8724   4.596   2.816   4.190
   83POPS     N 8725   2.889   5.451   6.172
   83POPS   HN1 8726   2.992   5.456   6.183
   83POPS   HN2 8727   2.847   5.360   6.204
   83POPS   HN3 8728   2.858   5.469   6.074
   83POPS   C12 8729   2.827   5.556   6.259
   83POPS  H12A 8730   2.887   5.564   6.349
   83POPS   C13 8731   2.684   5.520   6.300
   83POPS  O13A 8732   2.626   5.423   6.245
   83POPS  O13B 8733   2.633   5.588   6.392
   83POPS   C11 8734   2.823   5.692   6.185
   83POPS  H11A 8735   2.756   5.762   6.239
   83POPS  H11B 8736   2.783   5.677   6.082
   83POPS     P 8737   2.999   5.857   6.080
   83POPS   O13 8738   3.127   5.910   6.130
   83POPS   O14 8739   2.891   5.952   6.045
   83POPS   O12 8740   2.954   5.746   6.184
   83POPS   O11 8741   3.027   5.763   5.956
   83POPS    C1 8742   3.137   5.671   5.967
   83POPS    HA 8743   3.137   5.617   6.064
   83POPS    HB 8744   3.234   5.725   5.958
   83POPS    C2 8745   3.128   5.566   5.854
   83POPS    HS 8746   3.188   5.607   5.769
   83POPS   O21 8747   2.989   5.544   5.823
   83POPS   C21 8748   2.951   5.593   5.707
   83POPS   O22 8749   3.022   5.647   5.623
   83POPS   C22 8750   2.804   5.555   5.689
   83POPS   H2R 8751   2.743   5.605   5.767
   83POPS   H2S 8752   2.796   5.445   5.702
   83POPS    C3 8753   3.190   5.429   5.892
   83POPS    HX 8754   3.117   5.370   5.952
   83POPS    HY 8755   3.279   5.447   5.956
   83POPS   O31 8756   3.233   5.359   5.774
   83POPS   C31 8757   3.134   5.303   5.703
   83POPS   O32 8758   3.021   5.286   5.742
   83POPS   C32 8759   3.191   5.248   5.573
   83POPS   H2X 8760   3.133   5.159   5.545
   83POPS   H2Y 8761   3.296   5.220   5.596
   83POPS   C23 8762   2.756   5.595   5.549
   83POPS   H3R 8763   2.831   5.563   5.473
   83POPS   H3S 8764   2.748   5.706   5.545
   83POPS   C24 8765   2.622   5.531   5.508
   83POPS   H4R 8766   2.550   5.533   5.593
   83POPS   H4S 8767   2.640   5.424   5.483
   83POPS   C25 8768   2.561   5.604   5.388
   83POPS   H5R 8769   2.513   5.698   5.422
   83POPS   H5S 8770   2.480   5.543   5.344
   83POPS   C26 8771   2.666   5.640   5.281
   83POPS   H6R 8772   2.712   5.546   5.243
   83POPS   H6S 8773   2.748   5.702   5.324
   83POPS   C27 8774   2.608   5.720   5.165
   83POPS   H7R 8775   2.660   5.818   5.156
   83POPS   H7S 8776   2.499   5.739   5.184
   83POPS   C28 8777   2.625   5.643   5.035
   83POPS   H8R 8778   2.582   5.543   5.056
   83POPS   H8S 8779   2.734   5.627   5.015
   83POPS   C29 8780   2.555   5.705   4.917
   83POPS   H91 8781   2.445   5.700   4.920
   83POPS  C210 8782   2.613   5.766   4.813
   83POPS  H101 8783   2.550   5.795   4.728
   83POPS  C211 8784   2.759   5.788   4.788
   83POPS  H11R 8785   2.816   5.694   4.804
   83POPS  H11S 8786   2.802   5.864   4.857
   83POPS  C212 8787   2.775   5.840   4.643
   83POPS  H12R 8788   2.760   5.950   4.642
   83POPS  H12S 8789   2.699   5.795   4.574
   83POPS  C213 8790   2.912   5.806   4.584
   83POPS  H13R 8791   2.990   5.837   4.656
   83POPS  H13S 8792   2.928   5.863   4.490
   83POPS  C214 8793   2.927   5.656   4.553
   83POPS  H14R 8794   2.885   5.634   4.453
   83POPS  H14S 8795   2.866   5.597   4.625
   83POPS  C215 8796   3.072   5.609   4.562
   83POPS  H15R 8797   3.080   5.499   4.548
   83POPS  H15S 8798   3.109   5.633   4.665
   83POPS  C216 8799   3.163   5.674   4.459
   83POPS  H16R 8800   3.116   5.767   4.422
   83POPS  H16S 8801   3.173   5.605   4.372
   83POPS  C217 8802   3.302   5.707   4.515
   83POPS  H17R 8803   3.290   5.764   4.610
   83POPS  H17S 8804   3.353   5.774   4.442
   83POPS  C218 8805   3.386   5.582   4.539
   83POPS  H18R 8806   3.354   5.530   4.632
   83POPS  H18S 8807   3.494   5.609   4.549
   83POPS  H18T 8808   3.376   5.511   4.454
   83POPS   C33 8809   3.198   5.349   5.458
   83POPS   H3X 8810   3.254   5.299   5.375
   83POPS   H3Y 8811   3.255   5.438   5.490
   83POPS   C34 8812   3.063   5.395   5.402
   83POPS   H4X 8813   3.003   5.437   5.485
   83POPS   H4Y 8814   3.006   5.311   5.358
   83POPS   C35 8815   3.087   5.505   5.298
   83POPS   H5X 8816   3.159   5.579   5.339
   83POPS   H5Y 8817   2.993   5.561   5.278
   83POPS   C36 8818   3.141   5.450   5.165
   83POPS   H6X 8819   3.226   5.381   5.181
   83POPS   H6Y 8820   3.180   5.536   5.105
   83POPS   C37 8821   3.030   5.380   5.086
   83POPS   H7X 8822   2.936   5.439   5.099
   83POPS   H7Y 8823   3.011   5.279   5.128
   83POPS   C38 8824   3.057   5.370   4.937
   83POPS   H8X 8825   3.147   5.308   4.915
   83POPS   H8Y 8826   3.077   5.472   4.896
   83POPS   C39 8827   2.934   5.311   4.866
   83POPS   H9X 8828   2.847   5.373   4.895
   83POPS   H9Y 8829   2.917   5.206   4.898
   83POPS  C310 8830   2.949   5.321   4.716
   83POPS  H10X 8831   3.039   5.265   4.684
   83POPS  H10Y 8832   2.966   5.428   4.697
   83POPS  C311 8833   2.824   5.281   4.635
   83POPS  H11X 8834   2.738   5.341   4.670
   83POPS  H11Y 8835   2.802   5.174   4.654
   83POPS  C312 8836   2.843   5.304   4.484
   83POPS  H12X 8837   2.848   5.412   4.461
   83POPS  H12Y 8838   2.757   5.261   4.428
   83POPS  C313 8839   2.971   5.236   4.438
   83POPS  H13X 8840   2.979   5.139   4.491
   83POPS  H13Y 8841   3.057   5.300   4.468
   83POPS  C314 8842   2.979   5.210   4.290
   83POPS  H14X 8843   2.882   5.178   4.248
   83POPS  H14Y 8844   3.054   5.130   4.270
   83POPS  C315 8845   3.034   5.331   4.220
   83POPS  H15X 8846   3.134   5.359   4.263
   83POPS  H15Y 8847   2.966   5.417   4.235
   83POPS  C316 8848   3.050   5.302   4.074
   83POPS  H16X 8849   3.127   5.223   4.056
   83POPS  H16Y 8850   3.083   5.397   4.030
   83POPS  H16Z 8851   2.955   5.271   4.026
   84POPS     N 8852   2.588   1.891   6.202
   84POPS   HN1 8853   2.506   1.867   6.141
   84POPS   HN2 8854   2.679   1.886   6.152
   84POPS   HN3 8855   2.588   1.840   6.293
   84POPS   C12 8856   2.561   2.035   6.230
   84POPS  H12A 8857   2.569   2.056   6.335
   84POPS   C13 8858   2.420   2.070   6.189
   84POPS  O13A 8859   2.362   1.989   6.112
   84POPS  O13B 8860   2.369   2.175   6.236
   84POPS   C11 8861   2.663   2.118   6.153
   84POPS  H11A 8862   2.647   2.224   6.183
   84POPS  H11B 8863   2.645   2.108   6.043
   84POPS     P 8864   2.915   2.161   6.153
   84POPS   O13 8865   3.034   2.108   6.221
   84POPS   O14 8866   2.877   2.302   6.180
   84POPS   O12 8867   2.793   2.068   6.187
   84POPS   O11 8868   2.926   2.133   5.998
   84POPS    C1 8869   2.966   2.002   5.953
   84POPS    HA 8870   3.000   1.935   6.035
   84POPS    HB 8871   3.053   2.016   5.885
   84POPS    C2 8872   2.858   1.927   5.870
   84POPS    HS 8873   2.909   1.882   5.781
   84POPS   O21 8874   2.753   2.019   5.836
   84POPS   C21 8875   2.776   2.076   5.720
   84POPS   O22 8876   2.870   2.050   5.646
   84POPS   C22 8877   2.661   2.171   5.689
   84POPS   H2R 8878   2.651   2.243   5.772
   84POPS   H2S 8879   2.568   2.110   5.683
   84POPS    C3 8880   2.794   1.802   5.938
   84POPS    HX 8881   2.786   1.820   6.047
   84POPS    HY 8882   2.861   1.715   5.921
   84POPS   O31 8883   2.666   1.781   5.877
   84POPS   C31 8884   2.589   1.681   5.910
   84POPS   O32 8885   2.602   1.610   6.009
   84POPS   C32 8886   2.463   1.679   5.822
   84POPS   H2X 8887   2.398   1.762   5.855
   84POPS   H2Y 8888   2.413   1.583   5.844
   84POPS   C23 8889   2.684   2.242   5.555
   84POPS   H3R 8890   2.595   2.306   5.533
   84POPS   H3S 8891   2.691   2.167   5.474
   84POPS   C24 8892   2.811   2.328   5.550
   84POPS   H4R 8893   2.902   2.264   5.552
   84POPS   H4S 8894   2.814   2.393   5.640
   84POPS   C25 8895   2.816   2.414   5.424
   84POPS   H5R 8896   2.905   2.481   5.426
   84POPS   H5S 8897   2.726   2.478   5.429
   84POPS   C26 8898   2.812   2.336   5.292
   84POPS   H6R 8899   2.800   2.411   5.211
   84POPS   H6S 8900   2.723   2.270   5.289
   84POPS   C27 8901   2.938   2.253   5.261
   84POPS   H7R 8902   2.949   2.174   5.339
   84POPS   H7S 8903   3.027   2.319   5.268
   84POPS   C28 8904   2.933   2.185   5.122
   84POPS   H8R 8905   2.851   2.111   5.120
   84POPS   H8S 8906   3.029   2.130   5.109
   84POPS   C29 8907   2.918   2.287   5.011
   84POPS   H91 8908   2.956   2.386   5.038
   84POPS  C210 8909   2.860   2.274   4.890
   84POPS  H101 8910   2.864   2.360   4.823
   84POPS  C211 8911   2.794   2.153   4.830
   84POPS  H11R 8912   2.684   2.167   4.834
   84POPS  H11S 8913   2.817   2.061   4.888
   84POPS  C212 8914   2.831   2.129   4.682
   84POPS  H12R 8915   2.787   2.030   4.652
   84POPS  H12S 8916   2.941   2.121   4.670
   84POPS  C213 8917   2.774   2.233   4.584
   84POPS  H13R 8918   2.815   2.334   4.606
   84POPS  H13S 8919   2.664   2.235   4.598
   84POPS  C214 8920   2.797   2.199   4.437
   84POPS  H14R 8921   2.773   2.091   4.425
   84POPS  H14S 8922   2.903   2.213   4.409
   84POPS  C215 8923   2.706   2.280   4.343
   84POPS  H15R 8924   2.745   2.384   4.335
   84POPS  H15S 8925   2.604   2.286   4.386
   84POPS  C216 8926   2.694   2.219   4.202
   84POPS  H16R 8927   2.633   2.291   4.143
   84POPS  H16S 8928   2.637   2.124   4.205
   84POPS  C217 8929   2.828   2.194   4.131
   84POPS  H17R 8930   2.902   2.269   4.166
   84POPS  H17S 8931   2.813   2.208   4.022
   84POPS  C218 8932   2.883   2.052   4.151
   84POPS  H18R 8933   2.984   2.043   4.105
   84POPS  H18S 8934   2.817   1.977   4.104
   84POPS  H18T 8935   2.893   2.027   4.258
   84POPS   C33 8936   2.486   1.682   5.670
   84POPS   H3X 8937   2.402   1.628   5.620
   84POPS   H3Y 8938   2.580   1.629   5.642
   84POPS   C34 8939   2.489   1.822   5.608
   84POPS   H4X 8940   2.571   1.882   5.654
   84POPS   H4Y 8941   2.393   1.875   5.624
   84POPS   C35 8942   2.515   1.809   5.458
   84POPS   H5X 8943   2.433   1.749   5.413
   84POPS   H5Y 8944   2.610   1.752   5.444
   84POPS   C36 8945   2.527   1.942   5.385
   84POPS   H6X 8946   2.623   1.990   5.413
   84POPS   H6Y 8947   2.444   2.009   5.416
   84POPS   C37 8948   2.522   1.921   5.234
   84POPS   H7X 8949   2.428   1.867   5.211
   84POPS   H7Y 8950   2.608   1.858   5.202
   84POPS   C38 8951   2.525   2.053   5.155
   84POPS   H8X 8952   2.620   2.107   5.177
   84POPS   H8Y 8953   2.442   2.118   5.189
   84POPS   C39 8954   2.515   2.030   5.004
   84POPS   H9X 8955   2.607   1.978   4.968
   84POPS   H9Y 8956   2.509   2.129   4.955
   84POPS  C310 8957   2.392   1.947   4.963
   84POPS  H10X 8958   2.304   1.990   5.016
   84POPS  H10Y 8959   2.402   1.841   4.994
   84POPS  C311 8960   2.365   1.955   4.812
   84POPS  H11X 8961   2.385   2.060   4.779
   84POPS  H11Y 8962   2.258   1.934   4.792
   84POPS  C312 8963   2.451   1.860   4.727
   84POPS  H12X 8964   2.412   1.756   4.737
   84POPS  H12Y 8965   2.556   1.861   4.763
   84POPS  C313 8966   2.448   1.906   4.581
   84POPS  H13X 8967   2.485   2.010   4.577
   84POPS  H13Y 8968   2.342   1.906   4.547
   84POPS  C314 8969   2.532   1.822   4.484
   84POPS  H14X 8970   2.484   1.722   4.471
   84POPS  H14Y 8971   2.633   1.805   4.527
   84POPS  C315 8972   2.547   1.891   4.348
   84POPS  H15X 8973   2.586   1.818   4.275
   84POPS  H15Y 8974   2.626   1.969   4.357
   84POPS  C316 8975   2.420   1.959   4.294
   84POPS  H16X 8976   2.435   1.993   4.190
   84POPS  H16Y 8977   2.394   2.047   4.356
   84POPS  H16Z 8978   2.333   1.889   4.296
   85POPS     N 8979   4.391   1.970   6.143
   85POPS   HN1 8980   4.299   1.997   6.103
   85POPS   HN2 8981   4.441   2.055   6.181
   85POPS   HN3 8982   4.451   1.920   6.074
   85POPS   C12 8983   4.367   1.872   6.253
   85POPS  H12A 8984   4.294   1.916   6.320
   85POPS   C13 8985   4.492   1.835   6.336
   85POPS  O13A 8986   4.606   1.878   6.306
   85POPS  O13B 8987   4.474   1.755   6.432
   85POPS   C11 8988   4.312   1.733   6.201
   85POPS  H11A 8989   4.243   1.698   6.281
   85POPS  H11B 8990   4.400   1.663   6.200
   85POPS     P 8991   4.223   1.579   6.024
   85POPS   O13 8992   4.166   1.503   6.139
   85POPS   O14 8993   4.351   1.529   5.970
   85POPS   O12 8994   4.245   1.731   6.073
   85POPS   O11 8995   4.116   1.589   5.910
   85POPS    C1 8996   3.977   1.604   5.932
   85POPS    HA 8997   3.955   1.650   6.031
   85POPS    HB 8998   3.929   1.503   5.931
   85POPS    C2 8999   3.914   1.692   5.821
   85POPS    HS 9000   3.805   1.692   5.838
   85POPS   O21 9001   3.943   1.651   5.689
   85POPS   C21 9002   3.904   1.535   5.656
   85POPS   O22 9003   3.806   1.475   5.698
   85POPS   C22 9004   4.005   1.489   5.552
   85POPS   H2R 9005   3.988   1.559   5.468
   85POPS   H2S 9006   3.978   1.387   5.520
   85POPS    C3 9007   3.964   1.837   5.819
   85POPS    HX 9008   3.932   1.884   5.915
   85POPS    HY 9009   3.906   1.883   5.736
   85POPS   O31 9010   4.106   1.858   5.799
   85POPS   C31 9011   4.147   1.889   5.675
   85POPS   O32 9012   4.085   1.871   5.572
   85POPS   C32 9013   4.272   1.976   5.691
   85POPS   H2X 9014   4.289   1.998   5.799
   85POPS   H2Y 9015   4.251   2.072   5.640
   85POPS   C23 9016   4.149   1.506   5.609
   85POPS   H3R 9017   4.152   1.467   5.713
   85POPS   H3S 9018   4.166   1.616   5.618
   85POPS   C24 9019   4.274   1.446   5.540
   85POPS   H4R 9020   4.302   1.353   5.594
   85POPS   H4S 9021   4.356   1.517   5.564
   85POPS   C25 9022   4.276   1.415   5.389
   85POPS   H5R 9023   4.232   1.315   5.378
   85POPS   H5S 9024   4.382   1.406   5.356
   85POPS   C26 9025   4.204   1.510   5.294
   85POPS   H6R 9026   4.243   1.614   5.296
   85POPS   H6S 9027   4.098   1.515   5.323
   85POPS   C27 9028   4.197   1.456   5.151
   85POPS   H7R 9029   4.209   1.345   5.153
   85POPS   H7S 9030   4.282   1.495   5.091
   85POPS   C28 9031   4.061   1.489   5.088
   85POPS   H8R 9032   3.978   1.455   5.154
   85POPS   H8S 9033   4.049   1.429   4.995
   85POPS   C29 9034   4.057   1.637   5.064
   85POPS   H91 9035   4.024   1.700   5.149
   85POPS  C210 9036   4.089   1.694   4.948
   85POPS  H101 9037   4.075   1.803   4.933
   85POPS  C211 9038   4.130   1.613   4.828
   85POPS  H11R 9039   4.168   1.514   4.858
   85POPS  H11S 9040   4.215   1.651   4.769
   85POPS  C212 9041   4.009   1.606   4.735
   85POPS  H12R 9042   3.976   1.709   4.709
   85POPS  H12S 9043   3.925   1.553   4.784
   85POPS  C213 9044   4.048   1.536   4.605
   85POPS  H13R 9045   4.130   1.594   4.560
   85POPS  H13S 9046   3.961   1.539   4.537
   85POPS  C214 9047   4.089   1.390   4.626
   85POPS  H14R 9048   3.998   1.326   4.633
   85POPS  H14S 9049   4.144   1.377   4.721
   85POPS  C215 9050   4.182   1.338   4.517
   85POPS  H15R 9051   4.128   1.328   4.421
   85POPS  H15S 9052   4.213   1.235   4.548
   85POPS  C216 9053   4.309   1.423   4.500
   85POPS  H16R 9054   4.342   1.460   4.600
   85POPS  H16S 9055   4.292   1.513   4.437
   85POPS  C217 9056   4.420   1.338   4.440
   85POPS  H17R 9057   4.422   1.250   4.506
   85POPS  H17S 9058   4.519   1.389   4.444
   85POPS  C218 9059   4.390   1.280   4.303
   85POPS  H18R 9060   4.447   1.186   4.289
   85POPS  H18S 9061   4.417   1.351   4.223
   85POPS  H18T 9062   4.284   1.250   4.295
   85POPS   C33 9063   4.400   1.916   5.632
   85POPS   H3X 9064   4.484   1.983   5.661
   85POPS   H3Y 9065   4.392   1.915   5.520
   85POPS   C34 9066   4.432   1.778   5.686
   85POPS   H4X 9067   4.354   1.708   5.650
   85POPS   H4Y 9068   4.425   1.779   5.797
   85POPS   C35 9069   4.571   1.724   5.644
   85POPS   H5X 9070   4.573   1.617   5.673
   85POPS   H5Y 9071   4.649   1.777   5.704
   85POPS   C36 9072   4.606   1.737   5.494
   85POPS   H6X 9073   4.709   1.698   5.480
   85POPS   H6Y 9074   4.607   1.844   5.464
   85POPS   C37 9075   4.510   1.658   5.405
   85POPS   H7X 9076   4.406   1.690   5.426
   85POPS   H7Y 9077   4.518   1.552   5.439
   85POPS   C38 9078   4.532   1.661   5.252
   85POPS   H8X 9079   4.474   1.576   5.208
   85POPS   H8Y 9080   4.639   1.643   5.229
   85POPS   C39 9081   4.481   1.790   5.185
   85POPS   H9X 9082   4.532   1.877   5.231
   85POPS   H9Y 9083   4.372   1.799   5.208
   85POPS  C310 9084   4.497   1.798   5.032
   85POPS  H10X 9085   4.465   1.702   4.986
   85POPS  H10Y 9086   4.605   1.813   5.009
   85POPS  C311 9087   4.416   1.915   4.970
   85POPS  H11X 9088   4.437   2.007   5.028
   85POPS  H11Y 9089   4.308   1.894   4.986
   85POPS  C312 9090   4.445   1.940   4.820
   85POPS  H12X 9091   4.542   1.890   4.798
   85POPS  H12Y 9092   4.465   2.047   4.800
   85POPS  C313 9093   4.337   1.876   4.728
   85POPS  H13X 9094   4.294   1.811   4.806
   85POPS  H13Y 9095   4.381   1.808   4.653
   85POPS  C314 9096   4.209   1.948   4.678
   85POPS  H14X 9097   4.196   2.038   4.739
   85POPS  H14Y 9098   4.121   1.885   4.702
   85POPS  C315 9099   4.197   1.987   4.530
   85POPS  H15X 9100   4.298   1.991   4.483
   85POPS  H15Y 9101   4.153   2.090   4.525
   85POPS  C316 9102   4.103   1.898   4.448
   85POPS  H16X 9103   4.124   1.791   4.469
   85POPS  H16Y 9104   4.116   1.915   4.338
   85POPS  H16Z 9105   3.997   1.919   4.473
   86POPS     N 9106   3.990   5.903   6.237
   86POPS   HN1 9107   3.900   5.936   6.279
   86POPS   HN2 9108   3.974   5.863   6.143
   86POPS   HN3 9109   4.026   5.831   6.304
   86POPS   C12 9110   4.083   6.021   6.236
   86POPS  H12A 9111   4.180   5.988   6.201
   86POPS   C13 9112   4.101   6.077   6.380
   86POPS  O13A 9113   4.018   6.041   6.468
   86POPS  O13B 9114   4.198   6.153   6.407
   86POPS   C11 9115   4.022   6.129   6.140
   86POPS  H11A 9116   3.926   6.165   6.183
   86POPS  H11B 9117   3.998   6.083   6.041
   86POPS     P 9118   4.227   6.245   6.022
   86POPS   O13 9119   4.313   6.127   6.048
   86POPS   O14 9120   4.291   6.379   6.027
   86POPS   O12 9121   4.105   6.243   6.122
   86POPS   O11 9122   4.157   6.220   5.882
   86POPS    C1 9123   4.076   6.311   5.809
   86POPS    HA 9124   4.112   6.416   5.822
   86POPS    HB 9125   3.971   6.307   5.845
   86POPS    C2 9126   4.080   6.280   5.656
   86POPS    HS 9127   4.025   6.361   5.603
   86POPS   O21 9128   4.023   6.153   5.619
   86POPS   C21 9129   3.892   6.139   5.622
   86POPS   O22 9130   3.812   6.220   5.665
   86POPS   C22 9131   3.858   6.001   5.561
   86POPS   H2R 9132   3.836   5.933   5.646
   86POPS   H2S 9133   3.948   5.962   5.510
   86POPS    C3 9134   4.226   6.284   5.603
   86POPS    HX 9135   4.290   6.223   5.671
   86POPS    HY 9136   4.264   6.388   5.612
   86POPS   O31 9137   4.233   6.243   5.464
   86POPS   C31 9138   4.267   6.115   5.447
   86POPS   O32 9139   4.312   6.040   5.532
   86POPS   C32 9140   4.236   6.075   5.304
   86POPS   H2X 9141   4.321   6.107   5.240
   86POPS   H2Y 9142   4.147   6.130   5.268
   86POPS   C23 9143   3.738   5.996   5.462
   86POPS   H3R 9144   3.644   6.017   5.517
   86POPS   H3S 9145   3.727   5.892   5.424
   86POPS   C24 9146   3.747   6.093   5.343
   86POPS   H4R 9147   3.755   6.197   5.380
   86POPS   H4S 9148   3.652   6.087   5.285
   86POPS   C25 9149   3.863   6.064   5.247
   86POPS   H5R 9150   3.956   6.080   5.305
   86POPS   H5S 9151   3.863   6.138   5.164
   86POPS   C26 9152   3.867   5.922   5.188
   86POPS   H6R 9153   3.884   5.849   5.270
   86POPS   H6S 9154   3.954   5.914   5.120
   86POPS   C27 9155   3.742   5.880   5.109
   86POPS   H7R 9156   3.651   5.895   5.170
   86POPS   H7S 9157   3.751   5.771   5.089
   86POPS   C28 9158   3.727   5.950   4.972
   86POPS   H8R 9159   3.739   6.059   4.987
   86POPS   H8S 9160   3.624   5.933   4.935
   86POPS   C29 9161   3.826   5.892   4.874
   86POPS   H91 9162   3.816   5.783   4.860
   86POPS  C210 9163   3.921   5.957   4.805
   86POPS  H101 9164   3.986   5.899   4.737
   86POPS  C211 9165   3.953   6.103   4.810
   86POPS  H11R 9166   3.875   6.160   4.866
   86POPS  H11S 9167   3.946   6.139   4.706
   86POPS  C212 9168   4.089   6.142   4.872
   86POPS  H12R 9169   4.087   6.116   4.980
   86POPS  H12S 9170   4.101   6.252   4.866
   86POPS  C213 9171   4.215   6.077   4.809
   86POPS  H13R 9172   4.209   5.968   4.826
   86POPS  H13S 9173   4.305   6.113   4.863
   86POPS  C214 9174   4.235   6.102   4.659
   86POPS  H14R 9175   4.151   6.055   4.604
   86POPS  H14S 9176   4.329   6.048   4.630
   86POPS  C215 9177   4.246   6.248   4.612
   86POPS  H15R 9178   4.317   6.252   4.526
   86POPS  H15S 9179   4.288   6.311   4.693
   86POPS  C216 9180   4.111   6.301   4.563
   86POPS  H16R 9181   4.041   6.298   4.649
   86POPS  H16S 9182   4.071   6.235   4.483
   86POPS  C217 9183   4.109   6.447   4.516
   86POPS  H17R 9184   4.164   6.509   4.590
   86POPS  H17S 9185   4.003   6.481   4.518
   86POPS  C218 9186   4.163   6.466   4.374
   86POPS  H18R 9187   4.165   6.574   4.349
   86POPS  H18S 9188   4.099   6.413   4.300
   86POPS  H18T 9189   4.267   6.427   4.367
   86POPS   C33 9190   4.215   5.923   5.293
   86POPS   H3X 9191   4.116   5.895   5.336
   86POPS   H3Y 9192   4.293   5.866   5.349
   86POPS   C34 9193   4.221   5.882   5.147
   86POPS   H4X 9194   4.320   5.904   5.104
   86POPS   H4Y 9195   4.151   5.948   5.092
   86POPS   C35 9196   4.183   5.737   5.119
   86POPS   H5X 9197   4.088   5.711   5.171
   86POPS   H5Y 9198   4.263   5.667   5.154
   86POPS   C36 9199   4.164   5.727   4.969
   86POPS   H6X 9200   4.262   5.746   4.921
   86POPS   H6Y 9201   4.095   5.809   4.939
   86POPS   C37 9202   4.103   5.597   4.916
   86POPS   H7X 9203   4.013   5.569   4.975
   86POPS   H7Y 9204   4.180   5.519   4.933
   86POPS   C38 9205   4.066   5.609   4.767
   86POPS   H8X 9206   3.976   5.674   4.759
   86POPS   H8Y 9207   4.037   5.510   4.727
   86POPS   C39 9208   4.177   5.671   4.682
   86POPS   H9X 9209   4.271   5.612   4.696
   86POPS   H9Y 9210   4.199   5.773   4.721
   86POPS  C310 9211   4.143   5.684   4.533
   86POPS  H10X 9212   4.037   5.660   4.514
   86POPS  H10Y 9213   4.205   5.614   4.473
   86POPS  C311 9214   4.175   5.824   4.482
   86POPS  H11X 9215   4.257   5.866   4.545
   86POPS  H11Y 9216   4.085   5.888   4.491
   86POPS  C312 9217   4.229   5.827   4.340
   86POPS  H12X 9218   4.154   5.783   4.270
   86POPS  H12Y 9219   4.322   5.766   4.334
   86POPS  C313 9220   4.260   5.971   4.301
   86POPS  H13X 9221   4.337   6.014   4.369
   86POPS  H13Y 9222   4.168   6.031   4.314
   86POPS  C314 9223   4.306   5.980   4.156
   86POPS  H14X 9224   4.228   5.928   4.095
   86POPS  H14Y 9225   4.403   5.928   4.142
   86POPS  C315 9226   4.317   6.123   4.106
   86POPS  H15X 9227   4.415   6.163   4.138
   86POPS  H15Y 9228   4.239   6.185   4.156
   86POPS  C316 9229   4.298   6.131   3.955
   86POPS  H16X 9230   4.393   6.108   3.902
   86POPS  H16Y 9231   4.264   6.232   3.925
   86POPS  H16Z 9232   4.221   6.058   3.921
   87POPS     N 9233   6.459   2.774   6.242
   87POPS   HN1 9234   6.450   2.677   6.279
   87POPS   HN2 9235   6.450   2.772   6.138
   87POPS   HN3 9236   6.550   2.812   6.270
   87POPS   C12 9237   6.345   2.857   6.291
   87POPS  H12A 9238   6.370   2.961   6.273
   87POPS   C13 9239   6.310   2.840   6.439
   87POPS  O13A 9240   6.369   2.751   6.505
   87POPS  O13B 9241   6.224   2.917   6.490
   87POPS   C11 9242   6.218   2.818   6.212
   87POPS  H11A 9243   6.149   2.907   6.213
   87POPS  H11B 9244   6.161   2.739   6.261
   87POPS     P 9245   6.270   2.881   5.969
   87POPS   O13 9246   6.379   2.832   5.884
   87POPS   O14 9247   6.288   3.011   6.039
   87POPS   O12 9248   6.250   2.771   6.080
   87POPS   O11 9249   6.127   2.871   5.910
   87POPS    C1 9250   6.018   2.932   5.979
   87POPS    HA 9251   6.049   3.024   6.035
   87POPS    HB 9252   5.975   2.861   6.054
   87POPS    C2 9253   5.909   2.974   5.879
   87POPS    HS 9254   5.828   2.898   5.889
   87POPS   O21 9255   5.968   2.978   5.746
   87POPS   C21 9256   5.905   2.908   5.655
   87POPS   O22 9257   5.801   2.847   5.676
   87POPS   C22 9258   5.969   2.916   5.518
   87POPS   H2R 9259   5.948   3.019   5.482
   87POPS   H2S 9260   5.916   2.845   5.451
   87POPS    C3 9261   5.848   3.111   5.920
   87POPS    HX 9262   5.797   3.101   6.017
   87POPS    HY 9263   5.769   3.141   5.847
   87POPS   O31 9264   5.952   3.208   5.936
   87POPS   C31 9265   5.982   3.264   5.820
   87POPS   O32 9266   5.923   3.244   5.715
   87POPS   C32 9267   6.106   3.350   5.838
   87POPS   H2X 9268   6.196   3.285   5.841
   87POPS   H2Y 9269   6.098   3.402   5.936
   87POPS   C23 9270   6.120   2.888   5.515
   87POPS   H3R 9271   6.174   2.947   5.593
   87POPS   H3S 9272   6.155   2.923   5.415
   87POPS   C24 9273   6.161   2.741   5.527
   87POPS   H4R 9274   6.108   2.679   5.452
   87POPS   H4S 9275   6.132   2.707   5.629
   87POPS   C25 9276   6.312   2.721   5.513
   87POPS   H5R 9277   6.335   2.613   5.525
   87POPS   H5S 9278   6.362   2.774   5.598
   87POPS   C26 9279   6.368   2.775   5.381
   87POPS   H6R 9280   6.419   2.872   5.400
   87POPS   H6S 9281   6.284   2.796   5.311
   87POPS   C27 9282   6.464   2.680   5.309
   87POPS   H7R 9283   6.544   2.650   5.380
   87POPS   H7S 9284   6.512   2.735   5.225
   87POPS   C28 9285   6.394   2.555   5.254
   87POPS   H8R 9286   6.353   2.498   5.340
   87POPS   H8S 9287   6.472   2.491   5.207
   87POPS   C29 9288   6.283   2.582   5.156
   87POPS   H91 9289   6.181   2.585   5.198
   87POPS  C210 9290   6.301   2.602   5.025
   87POPS  H101 9291   6.214   2.625   4.962
   87POPS  C211 9292   6.435   2.601   4.956
   87POPS  H11R 9293   6.471   2.497   4.940
   87POPS  H11S 9294   6.512   2.654   5.017
   87POPS  C212 9295   6.424   2.671   4.820
   87POPS  H12R 9296   6.526   2.687   4.779
   87POPS  H12S 9297   6.377   2.771   4.832
   87POPS  C213 9298   6.344   2.588   4.720
   87POPS  H13R 9299   6.247   2.554   4.763
   87POPS  H13S 9300   6.402   2.496   4.695
   87POPS  C214 9301   6.316   2.666   4.592
   87POPS  H14R 9302   6.414   2.700   4.553
   87POPS  H14S 9303   6.256   2.757   4.617
   87POPS  C215 9304   6.242   2.582   4.487
   87POPS  H15R 9305   6.147   2.544   4.531
   87POPS  H15S 9306   6.305   2.494   4.463
   87POPS  C216 9307   6.213   2.661   4.359
   87POPS  H16R 9308   6.122   2.724   4.373
   87POPS  H16S 9309   6.190   2.588   4.278
   87POPS  C217 9310   6.330   2.750   4.316
   87POPS  H17R 9311   6.424   2.690   4.324
   87POPS  H17S 9312   6.339   2.836   4.386
   87POPS  C218 9313   6.322   2.804   4.174
   87POPS  H18R 9314   6.245   2.883   4.169
   87POPS  H18S 9315   6.294   2.722   4.103
   87POPS  H18T 9316   6.418   2.848   4.142
   87POPS   C33 9317   6.112   3.452   5.725
   87POPS   H3X 9318   6.188   3.529   5.751
   87POPS   H3Y 9319   6.016   3.508   5.720
   87POPS   C34 9320   6.140   3.393   5.585
   87POPS   H4X 9321   6.208   3.464   5.532
   87POPS   H4Y 9322   6.043   3.393   5.531
   87POPS   C35 9323   6.196   3.250   5.576
   87POPS   H5X 9324   6.135   3.179   5.635
   87POPS   H5Y 9325   6.297   3.237   5.619
   87POPS   C36 9326   6.201   3.193   5.434
   87POPS   H6X 9327   6.112   3.128   5.422
   87POPS   H6Y 9328   6.293   3.130   5.427
   87POPS   C37 9329   6.193   3.292   5.318
   87POPS   H7X 9330   6.248   3.385   5.342
   87POPS   H7Y 9331   6.086   3.318   5.302
   87POPS   C38 9332   6.253   3.234   5.189
   87POPS   H8X 9333   6.361   3.252   5.194
   87POPS   H8Y 9334   6.214   3.292   5.102
   87POPS   C39 9335   6.232   3.083   5.167
   87POPS   H9X 9336   6.262   3.023   5.255
   87POPS   H9Y 9337   6.301   3.049   5.087
   87POPS  C310 9338   6.088   3.049   5.125
   87POPS  H10X 9339   6.021   3.135   5.146
   87POPS  H10Y 9340   6.052   2.963   5.185
   87POPS  C311 9341   6.083   3.012   4.976
   87POPS  H11X 9342   5.978   2.989   4.948
   87POPS  H11Y 9343   6.143   2.919   4.963
   87POPS  C312 9344   6.139   3.120   4.881
   87POPS  H12X 9345   6.232   3.166   4.921
   87POPS  H12Y 9346   6.066   3.202   4.874
   87POPS  C313 9347   6.172   3.069   4.740
   87POPS  H13X 9348   6.102   2.987   4.712
   87POPS  H13Y 9349   6.272   3.020   4.746
   87POPS  C314 9350   6.170   3.174   4.625
   87POPS  H14X 9351   6.075   3.168   4.569
   87POPS  H14Y 9352   6.245   3.143   4.549
   87POPS  C315 9353   6.185   3.323   4.659
   87POPS  H15X 9354   6.273   3.359   4.603
   87POPS  H15Y 9355   6.206   3.342   4.766
   87POPS  C316 9356   6.069   3.411   4.610
   87POPS  H16X 9357   5.982   3.350   4.576
   87POPS  H16Y 9358   6.102   3.470   4.521
   87POPS  H16Z 9359   6.032   3.480   4.688
   88POPS     N 9360   1.650   5.271   6.194
   88POPS   HN1 9361   1.702   5.360   6.176
   88POPS   HN2 9362   1.682   5.235   6.286
   88POPS   HN3 9363   1.661   5.198   6.121
   88POPS   C12 9364   1.503   5.293   6.212
   88POPS  H12A 9365   1.465   5.346   6.126
   88POPS   C13 9366   1.471   5.373   6.339
   88POPS  O13A 9367   1.569   5.410   6.409
   88POPS  O13B 9368   1.351   5.390   6.372
   88POPS   C11 9369   1.432   5.156   6.230
   88POPS  H11A 9370   1.325   5.172   6.202
   88POPS  H11B 9371   1.435   5.126   6.337
   88POPS     P 9372   1.410   4.925   6.113
   88POPS   O13 9373   1.351   4.872   6.238
   88POPS   O14 9374   1.504   4.843   6.035
   88POPS   O12 9375   1.496   5.054   6.151
   88POPS   O11 9376   1.305   4.991   6.012
   88POPS    C1 9377   1.358   5.068   5.901
   88POPS    HA 9378   1.442   5.016   5.849
   88POPS    HB 9379   1.398   5.165   5.940
   88POPS    C2 9380   1.252   5.104   5.791
   88POPS    HS 9381   1.160   5.136   5.845
   88POPS   O21 9382   1.223   4.985   5.714
   88POPS   C21 9383   1.171   4.979   5.593
   88POPS   O22 9384   1.158   5.070   5.513
   88POPS   C22 9385   1.109   4.838   5.576
   88POPS   H2R 9386   1.001   4.844   5.600
   88POPS   H2S 9387   1.150   4.775   5.656
   88POPS    C3 9388   1.306   5.223   5.705
   88POPS    HX 9389   1.319   5.310   5.773
   88POPS    HY 9390   1.230   5.255   5.630
   88POPS   O31 9391   1.434   5.186   5.650
   88POPS   C31 9392   1.450   5.204   5.520
   88POPS   O32 9393   1.391   5.284   5.451
   88POPS   C32 9394   1.558   5.110   5.467
   88POPS   H2X 9395   1.599   5.051   5.552
   88POPS   H2Y 9396   1.638   5.174   5.425
   88POPS   C23 9397   1.128   4.763   5.441
   88POPS   H3R 9398   1.047   4.786   5.371
   88POPS   H3S 9399   1.120   4.655   5.463
   88POPS   C24 9400   1.260   4.796   5.370
   88POPS   H4R 9401   1.345   4.782   5.439
   88POPS   H4S 9402   1.256   4.904   5.345
   88POPS   C25 9403   1.292   4.718   5.242
   88POPS   H5R 9404   1.311   4.610   5.259
   88POPS   H5S 9405   1.386   4.759   5.198
   88POPS   C26 9406   1.182   4.728   5.137
   88POPS   H6R 9407   1.092   4.670   5.170
   88POPS   H6S 9408   1.221   4.682   5.044
   88POPS   C27 9409   1.143   4.873   5.111
   88POPS   H7R 9410   1.236   4.933   5.108
   88POPS   H7S 9411   1.081   4.911   5.195
   88POPS   C28 9412   1.066   4.890   4.980
   88POPS   H8R 9413   0.972   4.835   4.990
   88POPS   H8S 9414   1.125   4.844   4.897
   88POPS   C29 9415   1.037   5.035   4.954
   88POPS   H91 9416   0.936   5.071   4.976
   88POPS  C210 9417   1.127   5.117   4.900
   88POPS  H101 9418   1.101   5.222   4.881
   88POPS  C211 9419   1.266   5.074   4.859
   88POPS  H11R 9420   1.303   4.982   4.911
   88POPS  H11S 9421   1.335   5.155   4.886
   88POPS  C212 9422   1.266   5.046   4.707
   88POPS  H12R 9423   1.213   4.951   4.685
   88POPS  H12S 9424   1.372   5.032   4.674
   88POPS  C213 9425   1.201   5.162   4.631
   88POPS  H13R 9426   1.233   5.255   4.685
   88POPS  H13S 9427   1.090   5.156   4.639
   88POPS  C214 9428   1.240   5.179   4.484
   88POPS  H14R 9429   1.151   5.168   4.419
   88POPS  H14S 9430   1.315   5.102   4.455
   88POPS  C215 9431   1.301   5.318   4.469
   88POPS  H15R 9432   1.378   5.326   4.548
   88POPS  H15S 9433   1.224   5.396   4.490
   88POPS  C216 9434   1.366   5.347   4.334
   88POPS  H16R 9435   1.288   5.351   4.255
   88POPS  H16S 9436   1.434   5.264   4.307
   88POPS  C217 9437   1.441   5.480   4.339
   88POPS  H17R 9438   1.361   5.553   4.361
   88POPS  H17S 9439   1.484   5.505   4.239
   88POPS  C218 9440   1.547   5.498   4.448
   88POPS  H18R 9441   1.586   5.601   4.447
   88POPS  H18S 9442   1.633   5.430   4.435
   88POPS  H18T 9443   1.506   5.482   4.550
   88POPS   C33 9444   1.500   5.015   5.360
   88POPS   H3X 9445   1.400   5.050   5.325
   88POPS   H3Y 9446   1.489   4.916   5.410
   88POPS   C34 9447   1.585   4.994   5.235
   88POPS   H4X 9448   1.543   4.910   5.174
   88POPS   H4Y 9449   1.687   4.963   5.266
   88POPS   C35 9450   1.591   5.117   5.143
   88POPS   H5X 9451   1.600   5.209   5.206
   88POPS   H5Y 9452   1.497   5.125   5.085
   88POPS   C36 9453   1.713   5.109   5.051
   88POPS   H6X 9454   1.705   5.021   4.984
   88POPS   H6Y 9455   1.800   5.092   5.118
   88POPS   C37 9456   1.742   5.236   4.970
   88POPS   H7X 9457   1.836   5.220   4.912
   88POPS   H7Y 9458   1.761   5.320   5.041
   88POPS   C38 9459   1.631   5.275   4.873
   88POPS   H8X 9460   1.666   5.355   4.804
   88POPS   H8Y 9461   1.547   5.318   4.933
   88POPS   C39 9462   1.576   5.158   4.791
   88POPS   H9X 9463   1.488   5.197   4.735
   88POPS   H9Y 9464   1.539   5.079   4.859
   88POPS  C310 9465   1.672   5.094   4.689
   88POPS  H10X 9466   1.634   4.991   4.667
   88POPS  H10Y 9467   1.774   5.084   4.731
   88POPS  C311 9468   1.670   5.174   4.558
   88POPS  H11X 9469   1.710   5.275   4.576
   88POPS  H11Y 9470   1.562   5.185   4.531
   88POPS  C312 9471   1.739   5.110   4.436
   88POPS  H12X 9472   1.732   5.000   4.441
   88POPS  H12Y 9473   1.847   5.139   4.437
   88POPS  C313 9474   1.668   5.160   4.309
   88POPS  H13X 9475   1.642   5.266   4.327
   88POPS  H13Y 9476   1.572   5.104   4.298
   88POPS  C314 9477   1.742   5.161   4.175
   88POPS  H14X 9478   1.840   5.212   4.183
   88POPS  H14Y 9479   1.679   5.224   4.106
   88POPS  C315 9480   1.752   5.023   4.111
   88POPS  H15X 9481   1.654   4.972   4.122
   88POPS  H15Y 9482   1.825   4.961   4.167
   88POPS  C316 9483   1.789   5.029   3.962
   88POPS  H16X 9484   1.791   4.926   3.920
   88POPS  H16Y 9485   1.888   5.076   3.948
   88POPS  H16Z 9486   1.714   5.088   3.906
   89POPS     N 9487   2.472   6.332   6.026
   89POPS   HN1 9488   2.525   6.313   5.940
   89POPS   HN2 9489   2.380   6.282   6.022
   89POPS   HN3 9490   2.459   6.434   6.043
   89POPS   C12 9491   2.538   6.274   6.147
   89POPS  H12A 9492   2.635   6.234   6.119
   89POPS   C13 9493   2.451   6.163   6.209
   89POPS  O13A 9494   2.328   6.163   6.182
   89POPS  O13B 9495   2.504   6.082   6.288
   89POPS   C11 9496   2.550   6.386   6.255
   89POPS  H11A 9497   2.618   6.348   6.335
   89POPS  H11B 9498   2.449   6.401   6.301
   89POPS     P 9499   2.570   6.646   6.274
   89POPS   O13 9500   2.653   6.652   6.397
   89POPS   O14 9501   2.424   6.661   6.287
   89POPS   O12 9502   2.601   6.508   6.199
   89POPS   O11 9503   2.617   6.754   6.165
   89POPS    C1 9504   2.652   6.711   6.032
   89POPS    HA 9505   2.587   6.629   5.993
   89POPS    HB 9506   2.756   6.672   6.040
   89POPS    C2 9507   2.651   6.827   5.927
   89POPS    HS 9508   2.660   6.922   5.985
   89POPS   O21 9509   2.532   6.831   5.842
   89POPS   C21 9510   2.519   6.950   5.778
   89POPS   O22 9511   2.602   7.038   5.779
   89POPS   C22 9512   2.387   6.974   5.707
   89POPS   H2R 9513   2.350   7.068   5.754
   89POPS   H2S 9514   2.310   6.898   5.728
   89POPS    C3 9515   2.778   6.814   5.839
   89POPS    HX 9516   2.866   6.797   5.905
   89POPS    HY 9517   2.795   6.913   5.792
   89POPS   O31 9518   2.766   6.714   5.735
   89POPS   C31 9519   2.824   6.596   5.757
   89POPS   O32 9520   2.876   6.562   5.862
   89POPS   C32 9521   2.793   6.502   5.642
   89POPS   H2X 9522   2.701   6.540   5.593
   89POPS   H2Y 9523   2.768   6.403   5.686
   89POPS   C23 9524   2.402   7.006   5.558
   89POPS   H3R 9525   2.393   7.117   5.560
   89POPS   H3S 9526   2.503   6.981   5.517
   89POPS   C24 9527   2.288   6.949   5.471
   89POPS   H4R 9528   2.220   7.032   5.441
   89POPS   H4S 9529   2.228   6.882   5.537
   89POPS   C25 9530   2.331   6.866   5.348
   89POPS   H5R 9531   2.394   6.780   5.381
   89POPS   H5S 9532   2.238   6.826   5.303
   89POPS   C26 9533   2.416   6.941   5.245
   89POPS   H6R 9534   2.517   6.953   5.290
   89POPS   H6S 9535   2.367   7.040   5.229
   89POPS   C27 9536   2.442   6.883   5.105
   89POPS   H7R 9537   2.498   6.961   5.049
   89POPS   H7S 9538   2.347   6.872   5.051
   89POPS   C28 9539   2.526   6.754   5.097
   89POPS   H8R 9540   2.517   6.697   5.192
   89POPS   H8S 9541   2.632   6.783   5.095
   89POPS   C29 9542   2.493   6.665   4.980
   89POPS   H91 9543   2.464   6.562   5.008
   89POPS  C210 9544   2.489   6.695   4.849
   89POPS  H101 9545   2.454   6.616   4.780
   89POPS  C211 9546   2.517   6.826   4.779
   89POPS  H11R 9547   2.528   6.910   4.850
   89POPS  H11S 9548   2.433   6.851   4.710
   89POPS  C212 9549   2.646   6.821   4.695
   89POPS  H12R 9550   2.731   6.810   4.764
   89POPS  H12S 9551   2.663   6.917   4.642
   89POPS  C213 9552   2.657   6.705   4.595
   89POPS  H13R 9553   2.623   6.609   4.639
   89POPS  H13S 9554   2.766   6.692   4.573
   89POPS  C214 9555   2.585   6.732   4.464
   89POPS  H14R 9556   2.613   6.835   4.432
   89POPS  H14S 9557   2.475   6.728   4.476
   89POPS  C215 9558   2.635   6.635   4.357
   89POPS  H15R 9559   2.604   6.531   4.378
   89POPS  H15S 9560   2.745   6.637   4.366
   89POPS  C216 9561   2.599   6.673   4.213
   89POPS  H16R 9562   2.577   6.782   4.206
   89POPS  H16S 9563   2.509   6.618   4.180
   89POPS  C217 9564   2.719   6.643   4.122
   89POPS  H17R 9565   2.797   6.716   4.149
   89POPS  H17S 9566   2.691   6.661   4.016
   89POPS  C218 9567   2.777   6.502   4.135
   89POPS  H18R 9568   2.809   6.480   4.239
   89POPS  H18S 9569   2.867   6.492   4.070
   89POPS  H18T 9570   2.702   6.426   4.105
   89POPS   C33 9571   2.903   6.487   5.536
   89POPS   H3X 9572   2.981   6.416   5.569
   89POPS   H3Y 9573   2.951   6.585   5.514
   89POPS   C34 9574   2.832   6.436   5.410
   89POPS   H4X 9575   2.746   6.504   5.389
   89POPS   H4Y 9576   2.791   6.335   5.432
   89POPS   C35 9577   2.912   6.429   5.281
   89POPS   H5X 9578   3.000   6.363   5.292
   89POPS   H5Y 9579   2.950   6.529   5.252
   89POPS   C36 9580   2.818   6.372   5.174
   89POPS   H6X 9581   2.725   6.433   5.169
   89POPS   H6Y 9582   2.789   6.270   5.208
   89POPS   C37 9583   2.882   6.363   5.036
   89POPS   H7X 9584   2.989   6.339   5.050
   89POPS   H7Y 9585   2.877   6.462   4.985
   89POPS   C38 9586   2.816   6.253   4.952
   89POPS   H8X 9587   2.782   6.169   5.016
   89POPS   H8Y 9588   2.892   6.212   4.882
   89POPS   C39 9589   2.702   6.306   4.868
   89POPS   H9X 9590   2.728   6.407   4.830
   89POPS   H9Y 9591   2.610   6.317   4.929
   89POPS  C310 9592   2.676   6.217   4.747
   89POPS  H10X 9593   2.653   6.112   4.778
   89POPS  H10Y 9594   2.769   6.214   4.685
   89POPS  C311 9595   2.562   6.275   4.665
   89POPS  H11X 9596   2.571   6.386   4.666
   89POPS  H11Y 9597   2.464   6.250   4.711
   89POPS  C312 9598   2.563   6.231   4.520
   89POPS  H12X 9599   2.546   6.122   4.512
   89POPS  H12Y 9600   2.662   6.254   4.475
   89POPS  C313 9601   2.455   6.309   4.444
   89POPS  H13X 9602   2.464   6.417   4.466
   89POPS  H13Y 9603   2.355   6.277   4.480
   89POPS  C314 9604   2.464   6.285   4.294
   89POPS  H14X 9605   2.567   6.305   4.256
   89POPS  H14Y 9606   2.396   6.356   4.241
   89POPS  C315 9607   2.424   6.142   4.263
   89POPS  H15X 9608   2.341   6.111   4.331
   89POPS  H15Y 9609   2.510   6.074   4.282
   89POPS  C316 9610   2.375   6.125   4.121
   89POPS  H16X 9611   2.443   6.176   4.050
   89POPS  H16Y 9612   2.273   6.165   4.108
   89POPS  H16Z 9613   2.371   6.018   4.095
   90POPS     N 9614   1.011   5.883   6.318
   90POPS   HN1 9615   0.907   5.883   6.305
   90POPS   HN2 9616   1.049   5.787   6.327
   90POPS   HN3 9617   1.036   5.938   6.404
   90POPS   C12 9618   1.070   5.954   6.201
   90POPS  H12A 9619   1.160   6.003   6.232
   90POPS   C13 9620   0.971   6.060   6.145
   90POPS  O13A 9621   0.847   6.045   6.164
   90POPS  O13B 9622   1.022   6.157   6.085
   90POPS   C11 9623   1.107   5.854   6.086
   90POPS  H11A 9624   1.168   5.908   6.010
   90POPS  H11B 9625   1.013   5.823   6.034
   90POPS     P 9626   1.320   5.736   6.192
   90POPS   O13 9627   1.408   5.652   6.108
   90POPS   O14 9628   1.313   5.712   6.338
   90POPS   O12 9629   1.174   5.735   6.130
   90POPS   O11 9630   1.360   5.888   6.168
   90POPS    C1 9631   1.491   5.925   6.124
   90POPS    HA 9632   1.562   5.839   6.125
   90POPS    HB 9633   1.530   6.000   6.196
   90POPS    C2 9634   1.503   5.993   5.982
   90POPS    HS 9635   1.572   6.079   5.996
   90POPS   O21 9636   1.377   6.042   5.934
   90POPS   C21 9637   1.391   6.117   5.825
   90POPS   O22 9638   1.498   6.161   5.785
   90POPS   C22 9639   1.258   6.126   5.755
   90POPS   H2R 9640   1.238   6.233   5.740
   90POPS   H2S 9641   1.178   6.083   5.820
   90POPS    C3 9642   1.565   5.895   5.875
   90POPS    HX 9643   1.643   5.834   5.925
   90POPS    HY 9644   1.616   5.957   5.799
   90POPS   O31 9645   1.466   5.808   5.815
   90POPS   C31 9646   1.499   5.756   5.696
   90POPS   O32 9647   1.604   5.778   5.638
   90POPS   C32 9648   1.386   5.663   5.650
   90POPS   H2X 9649   1.296   5.684   5.712
   90POPS   H2Y 9650   1.418   5.558   5.668
   90POPS   C23 9651   1.263   6.048   5.622
   90POPS   H3R 9652   1.161   6.051   5.578
   90POPS   H3S 9653   1.287   5.941   5.642
   90POPS   C24 9654   1.363   6.106   5.520
   90POPS   H4R 9655   1.459   6.049   5.529
   90POPS   H4S 9656   1.387   6.211   5.546
   90POPS   C25 9657   1.307   6.101   5.378
   90POPS   H5R 9658   1.250   6.193   5.353
   90POPS   H5S 9659   1.235   6.016   5.373
   90POPS   C26 9660   1.408   6.081   5.266
   90POPS   H6R 9661   1.478   6.166   5.257
   90POPS   H6S 9662   1.347   6.078   5.172
   90POPS   C27 9663   1.482   5.949   5.282
   90POPS   H7R 9664   1.413   5.875   5.328
   90POPS   H7S 9665   1.567   5.963   5.353
   90POPS   C28 9666   1.534   5.890   5.151
   90POPS   H8R 9667   1.607   5.810   5.174
   90POPS   H8S 9668   1.589   5.971   5.097
   90POPS   C29 9669   1.421   5.832   5.069
   90POPS   H91 9670   1.378   5.738   5.109
   90POPS  C210 9671   1.364   5.888   4.961
   90POPS  H101 9672   1.279   5.839   4.912
   90POPS  C211 9673   1.403   6.020   4.902
   90POPS  H11R 9674   1.441   6.091   4.979
   90POPS  H11S 9675   1.309   6.062   4.862
   90POPS  C212 9676   1.506   6.014   4.788
   90POPS  H12R 9677   1.592   5.952   4.821
   90POPS  H12S 9678   1.546   6.116   4.768
   90POPS  C213 9679   1.442   5.960   4.660
   90POPS  H13R 9680   1.357   6.027   4.634
   90POPS  H13S 9681   1.401   5.858   4.679
   90POPS  C214 9682   1.537   5.953   4.541
   90POPS  H14R 9683   1.613   5.874   4.558
   90POPS  H14S 9684   1.592   6.050   4.531
   90POPS  C215 9685   1.464   5.927   4.409
   90POPS  H15R 9686   1.541   5.900   4.333
   90POPS  H15S 9687   1.413   6.021   4.377
   90POPS  C216 9688   1.358   5.817   4.407
   90POPS  H16R 9689   1.270   5.849   4.466
   90POPS  H16S 9690   1.400   5.728   4.457
   90POPS  C217 9691   1.316   5.789   4.262
   90POPS  H17R 9692   1.404   5.747   4.207
   90POPS  H17S 9693   1.293   5.887   4.216
   90POPS  C218 9694   1.194   5.699   4.240
   90POPS  H18R 9695   1.222   5.611   4.178
   90POPS  H18S 9696   1.114   5.755   4.188
   90POPS  H18T 9697   1.155   5.662   4.337
   90POPS   C33 9698   1.352   5.683   5.501
   90POPS   H3X 9699   1.443   5.666   5.439
   90POPS   H3Y 9700   1.319   5.788   5.485
   90POPS   C34 9701   1.242   5.589   5.448
   90POPS   H4X 9702   1.272   5.485   5.469
   90POPS   H4Y 9703   1.236   5.600   5.338
   90POPS   C35 9704   1.101   5.611   5.508
   90POPS   H5X 9705   1.104   5.588   5.616
   90POPS   H5Y 9706   1.033   5.538   5.459
   90POPS   C36 9707   1.043   5.752   5.488
   90POPS   H6X 9708   1.097   5.823   5.553
   90POPS   H6Y 9709   0.936   5.751   5.520
   90POPS   C37 9710   1.051   5.802   5.343
   90POPS   H7X 9711   1.011   5.724   5.274
   90POPS   H7Y 9712   1.157   5.819   5.316
   90POPS   C38 9713   0.972   5.932   5.323
   90POPS   H8X 9714   0.999   6.003   5.405
   90POPS   H8Y 9715   0.863   5.911   5.333
   90POPS   C39 9716   1.000   6.002   5.190
   90POPS   H9X 9717   1.109   6.016   5.178
   90POPS   H9Y 9718   0.953   6.103   5.192
   90POPS  C310 9719   0.945   5.926   5.069
   90POPS  H10X 9720   0.836   5.908   5.082
   90POPS  H10Y 9721   0.995   5.827   5.061
   90POPS  C311 9722   0.967   6.003   4.938
   90POPS  H11X 9723   1.076   6.023   4.925
   90POPS  H11Y 9724   0.916   6.102   4.945
   90POPS  C312 9725   0.914   5.927   4.816
   90POPS  H12X 9726   0.805   5.909   4.829
   90POPS  H12Y 9727   0.963   5.827   4.815
   90POPS  C313 9728   0.938   5.998   4.683
   90POPS  H13X 9729   0.988   6.097   4.699
   90POPS  H13Y 9730   0.840   6.018   4.634
   90POPS  C314 9731   1.025   5.914   4.589
   90POPS  H14X 9732   0.990   5.808   4.594
   90POPS  H14Y 9733   1.130   5.916   4.625
   90POPS  C315 9734   1.018   5.957   4.442
   90POPS  H15X 9735   0.913   5.974   4.412
   90POPS  H15Y 9736   1.055   5.872   4.381
   90POPS  C316 9737   1.103   6.080   4.409
   90POPS  H16X 9738   1.111   6.093   4.298
   90POPS  H16Y 9739   1.205   6.070   4.449
   90POPS  H16Z 9740   1.057   6.172   4.452
   91POPS     N 9741   2.277   0.712   6.373
   91POPS   HN1 9742   2.242   0.628   6.325
   91POPS   HN2 9743   2.326   0.690   6.461
   91POPS   HN3 9744   2.198   0.778   6.396
   91POPS   C12 9745   2.363   0.796   6.283
   91POPS  H12A 9746   2.456   0.743   6.272
   91POPS   C13 9747   2.401   0.930   6.352
   91POPS  O13A 9748   2.400   0.929   6.478
   91POPS  O13B 9749   2.432   1.031   6.286
   91POPS   C11 9750   2.291   0.813   6.146
   91POPS  H11A 9751   2.222   0.900   6.153
   91POPS  H11B 9752   2.228   0.724   6.126
   91POPS     P 9753   2.478   0.722   5.981
   91POPS   O13 9754   2.575   0.688   6.088
   91POPS   O14 9755   2.529   0.753   5.846
   91POPS   O12 9756   2.380   0.834   6.035
   91POPS   O11 9757   2.384   0.595   5.974
   91POPS    C1 9758   2.447   0.470   5.943
   91POPS    HA 9759   2.489   0.426   6.036
   91POPS    HB 9760   2.532   0.480   5.871
   91POPS    C2 9761   2.346   0.368   5.884
   91POPS    HS 9762   2.403   0.274   5.879
   91POPS   O21 9763   2.301   0.402   5.753
   91POPS   C21 9764   2.389   0.401   5.654
   91POPS   O22 9765   2.502   0.356   5.660
   91POPS   C22 9766   2.323   0.459   5.528
   91POPS   H2R 9767   2.353   0.566   5.527
   91POPS   H2S 9768   2.213   0.454   5.540
   91POPS    C3 9769   2.219   0.348   5.974
   91POPS    HX 9770   2.253   0.300   6.069
   91POPS    HY 9771   2.151   0.275   5.923
   91POPS   O31 9772   2.154   0.474   6.006
   91POPS   C31 9773   2.082   0.518   5.901
   91POPS   O32 9774   2.012   0.446   5.831
   91POPS   C32 9775   2.102   0.667   5.871
   91POPS   H2X 9776   2.186   0.706   5.929
   91POPS   H2Y 9777   2.010   0.721   5.900
   91POPS   C23 9778   2.358   0.394   5.391
   91POPS   H3R 9779   2.333   0.286   5.394
   91POPS   H3S 9780   2.468   0.403   5.373
   91POPS   C24 9781   2.282   0.462   5.275
   91POPS   H4R 9782   2.332   0.559   5.254
   91POPS   H4S 9783   2.178   0.484   5.307
   91POPS   C25 9784   2.276   0.383   5.144
   91POPS   H5R 9785   2.204   0.299   5.154
   91POPS   H5S 9786   2.376   0.340   5.122
   91POPS   C26 9787   2.233   0.472   5.026
   91POPS   H6R 9788   2.309   0.552   5.011
   91POPS   H6S 9789   2.137   0.523   5.052
   91POPS   C27 9790   2.211   0.401   4.891
   91POPS   H7R 9791   2.204   0.477   4.811
   91POPS   H7S 9792   2.113   0.350   4.894
   91POPS   C28 9793   2.318   0.296   4.855
   91POPS   H8R 9794   2.286   0.247   4.760
   91POPS   H8S 9795   2.318   0.215   4.932
   91POPS   C29 9796   2.457   0.350   4.836
   91POPS   H91 9797   2.529   0.329   4.916
   91POPS  C210 9798   2.494   0.421   4.729
   91POPS  H101 9799   2.598   0.458   4.725
   91POPS  C211 9800   2.407   0.459   4.611
   91POPS  H11R 9801   2.392   0.569   4.609
   91POPS  H11S 9802   2.305   0.416   4.618
   91POPS  C212 9803   2.469   0.419   4.476
   91POPS  H12R 9804   2.576   0.451   4.474
   91POPS  H12S 9805   2.418   0.476   4.396
   91POPS  C213 9806   2.459   0.269   4.448
   91POPS  H13R 9807   2.492   0.217   4.541
   91POPS  H13S 9808   2.529   0.236   4.368
   91POPS  C214 9809   2.318   0.219   4.413
   91POPS  H14R 9810   2.242   0.267   4.479
   91POPS  H14S 9811   2.323   0.112   4.437
   91POPS  C215 9812   2.272   0.219   4.267
   91POPS  H15R 9813   2.168   0.180   4.263
   91POPS  H15S 9814   2.336   0.147   4.211
   91POPS  C216 9815   2.276   0.355   4.196
   91POPS  H16R 9816   2.249   0.341   4.089
   91POPS  H16S 9817   2.379   0.395   4.199
   91POPS  C217 9818   2.180   0.457   4.258
   91POPS  H17R 9819   2.195   0.459   4.368
   91POPS  H17S 9820   2.075   0.424   4.240
   91POPS  C218 9821   2.200   0.599   4.203
   91POPS  H18R 9822   2.183   0.600   4.094
   91POPS  H18S 9823   2.304   0.633   4.224
   91POPS  H18T 9824   2.130   0.670   4.252
   91POPS   C33 9825   2.134   0.676   5.720
   91POPS   H3X 9826   2.040   0.653   5.665
   91POPS   H3Y 9827   2.205   0.595   5.698
   91POPS   C34 9828   2.208   0.799   5.663
   91POPS   H4X 9829   2.317   0.787   5.677
   91POPS   H4Y 9830   2.177   0.887   5.723
   91POPS   C35 9831   2.172   0.820   5.514
   91POPS   H5X 9832   2.107   0.908   5.502
   91POPS   H5Y 9833   2.109   0.730   5.491
   91POPS   C36 9834   2.274   0.811   5.398
   91POPS   H6X 9835   2.211   0.819   5.307
   91POPS   H6Y 9836   2.321   0.712   5.399
   91POPS   C37 9837   2.388   0.912   5.379
   91POPS   H7X 9838   2.451   0.917   5.470
   91POPS   H7Y 9839   2.347   1.014   5.361
   91POPS   C38 9840   2.478   0.870   5.259
   91POPS   H8X 9841   2.538   0.782   5.291
   91POPS   H8Y 9842   2.549   0.953   5.237
   91POPS   C39 9843   2.404   0.832   5.129
   91POPS   H9X 9844   2.349   0.922   5.093
   91POPS   H9Y 9845   2.328   0.753   5.147
   91POPS  C310 9846   2.495   0.780   5.015
   91POPS  H10X 9847   2.511   0.671   5.026
   91POPS  H10Y 9848   2.593   0.831   5.023
   91POPS  C311 9849   2.436   0.813   4.876
   91POPS  H11X 9850   2.423   0.923   4.877
   91POPS  H11Y 9851   2.336   0.765   4.863
   91POPS  C312 9852   2.528   0.777   4.758
   91POPS  H12X 9853   2.519   0.670   4.734
   91POPS  H12Y 9854   2.633   0.790   4.794
   91POPS  C313 9855   2.514   0.862   4.629
   91POPS  H13X 9856   2.605   0.847   4.568
   91POPS  H13Y 9857   2.512   0.968   4.660
   91POPS  C314 9858   2.394   0.834   4.536
   91POPS  H14X 9859   2.309   0.799   4.599
   91POPS  H14Y 9860   2.416   0.751   4.465
   91POPS  C315 9861   2.345   0.960   4.460
   91POPS  H15X 9862   2.355   1.043   4.532
   91POPS  H15Y 9863   2.238   0.947   4.434
   91POPS  C316 9864   2.417   1.013   4.337
   91POPS  H16X 9865   2.377   1.114   4.314
   91POPS  H16Y 9866   2.400   0.949   4.248
   91POPS  H16Z 9867   2.526   1.023   4.355
   92POPS     N 9868   0.234   4.118   6.165
   92POPS   HN1 9869   0.200   4.078   6.255
   92POPS   HN2 9870   0.203   4.216   6.149
   92POPS   HN3 9871   0.221   4.055   6.082
   92POPS   C12 9872   0.380   4.115   6.181
   92POPS  H12A 9873   0.410   4.211   6.220
   92POPS   C13 9874   0.456   4.092   6.047
   92POPS  O13A 9875   0.390   4.065   5.943
   92POPS  O13B 9876   0.581   4.110   6.048
   92POPS   C11 9877   0.410   4.004   6.286
   92POPS  H11A 9878   0.382   4.042   6.387
   92POPS  H11B 9879   0.520   3.990   6.289
   92POPS     P 9880   0.416   3.744   6.255
   92POPS   O13 9881   0.349   3.660   6.357
   92POPS   O14 9882   0.563   3.764   6.273
   92POPS   O12 9883   0.338   3.883   6.263
   92POPS   O11 9884   0.381   3.690   6.109
   92POPS    C1 9885   0.263   3.729   6.038
   92POPS    HA 9886   0.272   3.835   6.007
   92POPS    HB 9887   0.174   3.717   6.103
   92POPS    C2 9888   0.235   3.646   5.907
   92POPS    HS 9889   0.221   3.539   5.935
   92POPS   O21 9890   0.346   3.656   5.816
   92POPS   C21 9891   0.339   3.614   5.692
   92POPS   O22 9892   0.246   3.554   5.639
   92POPS   C22 9893   0.463   3.662   5.615
   92POPS   H2R 9894   0.483   3.766   5.648
   92POPS   H2S 9895   0.437   3.663   5.508
   92POPS    C3 9896   0.102   3.701   5.846
   92POPS    HX 9897   0.021   3.690   5.922
   92POPS    HY 9898   0.072   3.641   5.758
   92POPS   O31 9899   0.120   3.840   5.815
   92POPS   C31 9900   0.037   3.887   5.724
   92POPS   O32 9901  -0.080   3.856   5.711
   92POPS   C32 9902   0.114   3.984   5.635
   92POPS   H2X 9903   0.153   4.066   5.698
   92POPS   H2Y 9904   0.041   4.024   5.561
   92POPS   C23 9905   0.591   3.579   5.640
   92POPS   H3R 9906   0.578   3.475   5.602
   92POPS   H3S 9907   0.608   3.571   5.750
   92POPS   C24 9908   0.714   3.644   5.576
   92POPS   H4R 9909   0.803   3.580   5.596
   92POPS   H4S 9910   0.732   3.741   5.629
   92POPS   C25 9911   0.703   3.672   5.424
   92POPS   H5R 9912   0.800   3.716   5.390
   92POPS   H5S 9913   0.624   3.748   5.405
   92POPS   C26 9914   0.675   3.547   5.340
   92POPS   H6R 9915   0.576   3.505   5.366
   92POPS   H6S 9916   0.752   3.472   5.368
   92POPS   C27 9917   0.688   3.569   5.187
   92POPS   H7R 9918   0.738   3.480   5.143
   92POPS   H7S 9919   0.757   3.654   5.169
   92POPS   C28 9920   0.554   3.590   5.112
   92POPS   H8R 9921   0.579   3.601   5.004
   92POPS   H8S 9922   0.509   3.686   5.146
   92POPS   C29 9923   0.459   3.474   5.129
   92POPS   H91 9924   0.507   3.376   5.123
   92POPS  C210 9925   0.325   3.474   5.133
   92POPS  H101 9926   0.273   3.379   5.147
   92POPS  C211 9927   0.237   3.595   5.120
   92POPS  H11R 9928   0.259   3.670   5.199
   92POPS  H11S 9929   0.131   3.565   5.131
   92POPS  C212 9930   0.256   3.657   4.980
   92POPS  H12R 9931   0.265   3.581   4.901
   92POPS  H12S 9932   0.351   3.715   4.981
   92POPS  C213 9933   0.142   3.752   4.943
   92POPS  H13R 9934   0.187   3.837   4.888
   92POPS  H13S 9935   0.098   3.789   5.038
   92POPS  C214 9936   0.026   3.696   4.861
   92POPS  H14R 9937  -0.049   3.778   4.850
   92POPS  H14S 9938  -0.022   3.614   4.920
   92POPS  C215 9939   0.059   3.642   4.721
   92POPS  H15R 9940  -0.037   3.626   4.668
   92POPS  H15S 9941   0.107   3.543   4.733
   92POPS  C216 9942   0.151   3.730   4.634
   92POPS  H16R 9943   0.153   3.685   4.532
   92POPS  H16S 9944   0.255   3.728   4.673
   92POPS  C217 9945   0.105   3.875   4.616
   92POPS  H17R 9946   0.121   3.932   4.711
   92POPS  H17S 9947  -0.004   3.877   4.595
   92POPS  C218 9948   0.180   3.945   4.503
   92POPS  H18R 9949   0.173   3.885   4.410
   92POPS  H18S 9950   0.288   3.956   4.529
   92POPS  H18T 9951   0.137   4.045   4.484
   92POPS   C33 9952   0.232   3.912   5.565
   92POPS   H3X 9953   0.197   3.820   5.512
   92POPS   H3Y 9954   0.303   3.881   5.646
   92POPS   C34 9955   0.312   3.998   5.467
   92POPS   H4X 9956   0.389   3.935   5.416
   92POPS   H4Y 9957   0.367   4.075   5.527
   92POPS   C35 9958   0.228   4.072   5.363
   92POPS   H5X 9959   0.293   4.151   5.320
   92POPS   H5Y 9960   0.145   4.125   5.414
   92POPS   C36 9961   0.169   3.988   5.249
   92POPS   H6X 9962   0.069   4.031   5.224
   92POPS   H6Y 9963   0.151   3.884   5.282
   92POPS   C37 9964   0.250   3.988   5.118
   92POPS   H7X 9965   0.176   3.971   5.038
   92POPS   H7Y 9966   0.326   3.907   5.119
   92POPS   C38 9967   0.315   4.117   5.070
   92POPS   H8X 9968   0.386   4.158   5.145
   92POPS   H8Y 9969   0.235   4.191   5.050
   92POPS   C39 9970   0.385   4.105   4.936
   92POPS   H9X 9971   0.314   4.075   4.856
   92POPS   H9Y 9972   0.461   4.023   4.945
   92POPS  C310 9973   0.455   4.237   4.905
   92POPS  H10X 9974   0.552   4.208   4.866
   92POPS  H10Y 9975   0.474   4.296   4.997
   92POPS  C311 9976   0.398   4.324   4.792
   92POPS  H11X 9977   0.471   4.407   4.774
   92POPS  H11Y 9978   0.304   4.373   4.822
   92POPS  C312 9979   0.384   4.244   4.662
   92POPS  H12X 9980   0.287   4.189   4.663
   92POPS  H12Y 9981   0.464   4.167   4.658
   92POPS  C313 9982   0.394   4.329   4.534
   92POPS  H13X 9983   0.493   4.380   4.531
   92POPS  H13Y 9984   0.316   4.407   4.537
   92POPS  C314 9985   0.375   4.243   4.409
   92POPS  H14X 9986   0.285   4.181   4.424
   92POPS  H14Y 9987   0.462   4.175   4.397
   92POPS  C315 9988   0.354   4.322   4.279
   92POPS  H15X 9989   0.444   4.383   4.257
   92POPS  H15Y 9990   0.272   4.394   4.293
   92POPS  C316 9991   0.316   4.233   4.161
   92POPS  H16X 9992   0.393   4.155   4.146
   92POPS  H16Y 9993   0.307   4.293   4.068
   92POPS  H16Z 9994   0.219   4.183   4.180
   93POPS     N 9995   4.204   0.078   6.215
   93POPS   HN1 9996   4.247  -0.006   6.259
   93POPS   HN2 9997   4.242   0.090   6.118
   93POPS   HN3 9998   4.220   0.166   6.270
   93POPS   C12 9999   4.056   0.059   6.201
   93POPS  H12A10000   4.017   0.029   6.297
   93POPS   C1310001   4.015  -0.048   6.100
   93POPS  O13A10002   4.102  -0.093   6.021
   93POPS  O13B10003   3.895  -0.087   6.103
   93POPS   C1110004   3.992   0.190   6.152
   93POPS  H11A10005   3.881   0.176   6.145
   93POPS  H11B10006   4.030   0.207   6.048
   93POPS     P10007   3.974   0.445   6.196
   93POPS   O1310008   4.066   0.546   6.252
   93POPS   O1410009   3.831   0.455   6.233
   93POPS   O1210010   4.025   0.300   6.238
   93POPS   O1110011   3.987   0.438   6.040
   93POPS    C110012   4.030   0.554   5.971
   93POPS    HA10013   4.114   0.608   6.022
   93POPS    HB10014   3.944   0.625   5.960
   93POPS    C210015   4.079   0.513   5.831
   93POPS    HS10016   4.084   0.607   5.771
   93POPS   O2110017   3.996   0.415   5.767
   93POPS   C2110018   3.880   0.455   5.726
   93POPS   O2210019   3.834   0.568   5.734
   93POPS   C2210020   3.811   0.338   5.654
   93POPS   H2R10021   3.730   0.302   5.721
   93POPS   H2S10022   3.882   0.255   5.637
   93POPS    C310023   4.220   0.449   5.836
   93POPS    HX10024   4.211   0.355   5.894
   93POPS    HY10025   4.293   0.515   5.890
   93POPS   O3110026   4.263   0.418   5.700
   93POPS   C3110027   4.289   0.529   5.633
   93POPS   O3210028   4.309   0.639   5.682
   93POPS   C3210029   4.281   0.501   5.482
   93POPS   H2X10030   4.213   0.414   5.466
   93POPS   H2Y10031   4.382   0.468   5.452
   93POPS   C2310032   3.749   0.385   5.521
   93POPS   H3R10033   3.697   0.483   5.536
   93POPS   H3S10034   3.672   0.311   5.490
   93POPS   C2410035   3.843   0.396   5.401
   93POPS   H4R10036   3.873   0.294   5.367
   93POPS   H4S10037   3.936   0.451   5.429
   93POPS   C2510038   3.770   0.470   5.289
   93POPS   H5R10039   3.799   0.578   5.292
   93POPS   H5S10040   3.661   0.465   5.307
   93POPS   C2610041   3.794   0.414   5.149
   93POPS   H6R10042   3.753   0.311   5.139
   93POPS   H6S10043   3.902   0.407   5.131
   93POPS   C2710044   3.734   0.505   5.041
   93POPS   H7R10045   3.710   0.604   5.086
   93POPS   H7S10046   3.639   0.462   5.002
   93POPS   C2810047   3.829   0.530   4.924
   93POPS   H8R10048   3.921   0.578   4.963
   93POPS   H8S10049   3.780   0.604   4.857
   93POPS   C2910050   3.862   0.404   4.849
   93POPS   H9110051   3.835   0.308   4.896
   93POPS  C21010052   3.924   0.407   4.731
   93POPS  H10110053   3.951   0.314   4.679
   93POPS  C21110054   3.966   0.537   4.667
   93POPS  H11R10055   4.063   0.524   4.617
   93POPS  H11S10056   3.984   0.614   4.745
   93POPS  C21210057   3.863   0.602   4.571
   93POPS  H12R10058   3.896   0.705   4.547
   93POPS  H12S10059   3.764   0.608   4.622
   93POPS  C21310060   3.849   0.524   4.441
   93POPS  H13R10061   3.857   0.416   4.466
   93POPS  H13S10062   3.933   0.552   4.373
   93POPS  C21410063   3.717   0.541   4.365
   93POPS  H14R10064   3.706   0.646   4.331
   93POPS  H14S10065   3.632   0.517   4.433
   93POPS  C21510066   3.712   0.448   4.244
   93POPS  H15R10067   3.812   0.445   4.194
   93POPS  H15S10068   3.639   0.486   4.170
   93POPS  C21610069   3.669   0.305   4.278
   93POPS  H16R10070   3.562   0.310   4.310
   93POPS  H16S10071   3.728   0.264   4.363
   93POPS  C21710072   3.682   0.214   4.155
   93POPS  H17R10073   3.785   0.173   4.151
   93POPS  H17S10074   3.668   0.276   4.064
   93POPS  C21810075   3.580   0.100   4.152
   93POPS  H18R10076   3.594   0.033   4.240
   93POPS  H18S10077   3.591   0.040   4.059
   93POPS  H18T10078   3.476   0.140   4.155
   93POPS   C3310079   4.230   0.622   5.398
   93POPS   H3X10080   4.275   0.717   5.437
   93POPS   H3Y10081   4.120   0.630   5.414
   93POPS   C3410082   4.256   0.620   5.246
   93POPS   H4X10083   4.341   0.686   5.219
   93POPS   H4Y10084   4.169   0.667   5.194
   93POPS   C3510085   4.282   0.483   5.184
   93POPS   H5X10086   4.352   0.422   5.245
   93POPS   H5Y10087   4.328   0.494   5.083
   93POPS   C3610088   4.148   0.412   5.168
   93POPS   H6X10089   4.096   0.458   5.081
   93POPS   H6Y10090   4.087   0.432   5.259
   93POPS   C3710091   4.156   0.262   5.150
   93POPS   H7X10092   4.052   0.224   5.138
   93POPS   H7Y10093   4.198   0.213   5.241
   93POPS   C3810094   4.238   0.221   5.027
   93POPS   H8X10095   4.346   0.232   5.049
   93POPS   H8Y10096   4.212   0.288   4.942
   93POPS   C3910097   4.204   0.077   4.991
   93POPS   H9X10098   4.101   0.076   4.949
   93POPS   H9Y10099   4.205   0.017   5.084
   93POPS  C31010100   4.297   0.014   4.889
   93POPS  H10X10101   4.280  -0.096   4.888
   93POPS  H10Y10102   4.403   0.032   4.917
   93POPS  C31110103   4.264   0.072   4.753
   93POPS  H11X10104   4.287   0.181   4.754
   93POPS  H11Y10105   4.154   0.061   4.734
   93POPS  C31210106   4.338   0.007   4.638
   93POPS  H12X10107   4.313  -0.101   4.631
   93POPS  H12Y10108   4.446   0.018   4.656
   93POPS  C31310109   4.298   0.079   4.510
   93POPS  H13X10110   4.312   0.188   4.528
   93POPS  H13Y10111   4.190   0.061   4.489
   93POPS  C31410112   4.383   0.041   4.390
   93POPS  H14X10113   4.394  -0.069   4.383
   93POPS  H14Y10114   4.482   0.090   4.404
   93POPS  C31510115   4.322   0.095   4.262
   93POPS  H15X10116   4.265   0.184   4.292
   93POPS  H15Y10117   4.250   0.019   4.225
   93POPS  C31610118   4.417   0.144   4.155
   93POPS  H16X10119   4.433   0.065   4.080
   93POPS  H16Y10120   4.514   0.173   4.199
   93POPS  H16Z10121   4.377   0.235   4.104
   94POPS     N10122   0.376   2.414   6.249
   94POPS   HN110123   0.468   2.462   6.237
   94POPS   HN210124   0.345   2.408   6.349
   94POPS   HN310125   0.388   2.320   6.207
   94POPS   C1210126   0.278   2.489   6.164
   94POPS  H12A10127   0.199   2.422   6.133
   94POPS   C1310128   0.355   2.537   6.040
   94POPS  O13A10129   0.478   2.562   6.053
   94POPS  O13B10130   0.293   2.546   5.931
   94POPS   C1110131   0.221   2.611   6.244
   94POPS  H11A10132   0.295   2.694   6.240
   94POPS  H11B10133   0.210   2.586   6.352
   94POPS     P10134  -0.042   2.600   6.236
   94POPS   O1310135  -0.125   2.708   6.296
   94POPS   O1410136  -0.024   2.480   6.321
   94POPS   O1210137   0.097   2.658   6.190
   94POPS   O1110138  -0.118   2.555   6.104
   94POPS    C110139  -0.111   2.636   5.987
   94POPS    HA10140  -0.007   2.672   5.967
   94POPS    HB10141  -0.178   2.724   5.996
   94POPS    C210142  -0.153   2.553   5.864
   94POPS    HS10143  -0.255   2.513   5.884
   94POPS   O2110144  -0.055   2.449   5.850
   94POPS   C2110145  -0.094   2.344   5.784
   94POPS   O2210146  -0.209   2.323   5.747
   94POPS   C2210147   0.024   2.249   5.771
   94POPS   H2R10148  -0.012   2.150   5.736
   94POPS   H2S10149   0.066   2.239   5.874
   94POPS    C310150  -0.156   2.639   5.735
   94POPS    HX10151  -0.229   2.722   5.748
   94POPS    HY10152  -0.190   2.575   5.651
   94POPS   O3110153  -0.024   2.692   5.715
   94POPS   C3110154   0.013   2.709   5.591
   94POPS   O3210155  -0.060   2.736   5.497
   94POPS   C3210156   0.163   2.678   5.583
   94POPS   H2X10157   0.187   2.602   5.661
   94POPS   H2Y10158   0.218   2.770   5.609
   94POPS   C2310159   0.134   2.303   5.678
   94POPS   H3R10160   0.212   2.225   5.664
   94POPS   H3S10161   0.185   2.390   5.727
   94POPS   C2410162   0.077   2.347   5.543
   94POPS   H4R10163   0.162   2.362   5.474
   94POPS   H4S10164   0.022   2.442   5.555
   94POPS   C2510165  -0.014   2.247   5.474
   94POPS   H5R10166  -0.108   2.229   5.530
   94POPS   H5S10167   0.044   2.153   5.472
   94POPS   C2610168  -0.050   2.291   5.330
   94POPS   H6R10169  -0.094   2.204   5.277
   94POPS   H6S10170   0.043   2.320   5.276
   94POPS   C2710171  -0.153   2.405   5.322
   94POPS   H7R10172  -0.106   2.499   5.359
   94POPS   H7S10173  -0.240   2.382   5.387
   94POPS   C2810174  -0.200   2.425   5.176
   94POPS   H8R10175  -0.263   2.337   5.148
   94POPS   H8S10176  -0.109   2.417   5.113
   94POPS   C2910177  -0.272   2.553   5.141
   94POPS   H9110178  -0.382   2.549   5.142
   94POPS  C21010179  -0.211   2.670   5.111
   94POPS  H10110180  -0.273   2.756   5.079
   94POPS  C21110181  -0.062   2.693   5.109
   94POPS  H11R10182  -0.008   2.609   5.158
   94POPS  H11S10183  -0.039   2.783   5.170
   94POPS  C21210184   0.002   2.714   4.970
   94POPS  H12R10185   0.112   2.715   4.983
   94POPS  H12S10186  -0.027   2.815   4.933
   94POPS  C21310187  -0.033   2.609   4.863
   94POPS  H13R10188  -0.138   2.574   4.873
   94POPS  H13S10189   0.035   2.521   4.874
   94POPS  C21410190  -0.017   2.670   4.724
   94POPS  H14R10191   0.087   2.712   4.724
   94POPS  H14S10192  -0.088   2.755   4.712
   94POPS  C21510193  -0.034   2.574   4.606
   94POPS  H15R10194  -0.133   2.523   4.610
   94POPS  H15S10195   0.044   2.495   4.613
   94POPS  C21610196  -0.018   2.646   4.471
   94POPS  H16R10197  -0.111   2.700   4.443
   94POPS  H16S10198   0.001   2.570   4.392
   94POPS  C21710199   0.099   2.744   4.477
   94POPS  H17R10200   0.185   2.685   4.512
   94POPS  H17S10201   0.078   2.825   4.551
   94POPS  C21810202   0.135   2.814   4.349
   94POPS  H18R10203   0.239   2.851   4.352
   94POPS  H18S10204   0.067   2.900   4.332
   94POPS  H18T10205   0.125   2.742   4.264
   94POPS   C3310206   0.202   2.623   5.445
   94POPS   H3X10207   0.202   2.707   5.373
   94POPS   H3Y10208   0.125   2.554   5.404
   94POPS   C3410209   0.340   2.554   5.442
   94POPS   H4X10210   0.336   2.450   5.481
   94POPS   H4Y10211   0.408   2.605   5.513
   94POPS   C3510212   0.398   2.554   5.300
   94POPS   H5X10213   0.505   2.524   5.302
   94POPS   H5Y10214   0.394   2.656   5.259
   94POPS   C3610215   0.317   2.461   5.211
   94POPS   H6X10216   0.208   2.477   5.225
   94POPS   H6Y10217   0.340   2.359   5.247
   94POPS   C3710218   0.346   2.471   5.061
   94POPS   H7X10219   0.454   2.485   5.043
   94POPS   H7Y10220   0.292   2.558   5.016
   94POPS   C3810221   0.294   2.340   5.003
   94POPS   H8X10222   0.184   2.351   5.006
   94POPS   H8Y10223   0.325   2.259   5.073
   94POPS   C3910224   0.338   2.291   4.865
   94POPS   H9X10225   0.283   2.196   4.843
   94POPS   H9Y10226   0.445   2.264   4.866
   94POPS  C31010227   0.311   2.388   4.752
   94POPS  H10X10228   0.201   2.408   4.746
   94POPS  H10Y10229   0.363   2.484   4.772
   94POPS  C31110230   0.360   2.327   4.621
   94POPS  H11X10231   0.288   2.245   4.594
   94POPS  H11Y10232   0.459   2.279   4.634
   94POPS  C31210233   0.367   2.431   4.510
   94POPS  H12X10234   0.468   2.476   4.505
   94POPS  H12Y10235   0.296   2.512   4.536
   94POPS  C31310236   0.326   2.371   4.375
   94POPS  H13X10237   0.248   2.293   4.391
   94POPS  H13Y10238   0.415   2.322   4.332
   94POPS  C31410239   0.271   2.475   4.277
   94POPS  H14X10240   0.352   2.546   4.250
   94POPS  H14Y10241   0.192   2.534   4.328
   94POPS  C31510242   0.210   2.417   4.149
   94POPS  H15X10243   0.105   2.383   4.168
   94POPS  H15Y10244   0.268   2.328   4.115
   94POPS  C31610245   0.212   2.523   4.040
   94POPS  H16X10246   0.317   2.548   4.013
   94POPS  H16Y10247   0.166   2.616   4.080
   94POPS  H16Z10248   0.158   2.492   3.949
   95POPS     N10249   7.350   2.177   6.179
   95POPS   HN110250   7.380   2.248   6.110
   95POPS   HN210251   7.318   2.221   6.269
   95POPS   HN310252   7.424   2.104   6.195
   95POPS   C1210253   7.234   2.096   6.128
   95POPS  H12A10254   7.256   2.069   6.026
   95POPS   C1310255   7.102   2.177   6.128
   95POPS  O13A10256   7.104   2.292   6.180
   95POPS  O13B10257   7.000   2.126   6.077
   95POPS   C1110258   7.227   1.967   6.218
   95POPS  H11A10259   7.174   1.887   6.162
   95POPS  H11B10260   7.160   1.990   6.304
   95POPS     P10261   7.482   1.868   6.190
   95POPS   O1310262   7.591   1.856   6.289
   95POPS   O1410263   7.502   1.962   6.078
   95POPS   O1210264   7.355   1.925   6.269
   95POPS   O1110265   7.436   1.727   6.142
   95POPS    C110266   7.334   1.708   6.044
   95POPS    HA10267   7.288   1.803   6.008
   95POPS    HB10268   7.254   1.644   6.086
   95POPS    C210269   7.394   1.638   5.920
   95POPS    HS10270   7.458   1.555   5.956
   95POPS   O2110271   7.474   1.738   5.852
   95POPS   C2110272   7.529   1.704   5.739
   95POPS   O2210273   7.498   1.609   5.669
   95POPS   C2210274   7.637   1.804   5.696
   95POPS   H2R10275   7.727   1.783   5.757
   95POPS   H2S10276   7.600   1.907   5.714
   95POPS    C310277   7.278   1.578   5.832
   95POPS    HX10278   7.200   1.535   5.899
   95POPS    HY10279   7.320   1.491   5.777
   95POPS   O3110280   7.225   1.672   5.737
   95POPS   C3110281   7.137   1.758   5.785
   95POPS   O3210282   7.082   1.752   5.893
   95POPS   C3210283   7.119   1.875   5.689
   95POPS   H2X10284   7.054   1.947   5.743
   95POPS   H2Y10285   7.067   1.843   5.597
   95POPS   C2310286   7.666   1.777   5.547
   95POPS   H3R10287   7.571   1.792   5.492
   95POPS   H3S10288   7.694   1.671   5.530
   95POPS   C2410289   7.766   1.867   5.475
   95POPS   H4R10290   7.845   1.801   5.432
   95POPS   H4S10291   7.816   1.939   5.543
   95POPS   C2510292   7.696   1.934   5.357
   95POPS   H5R10293   7.616   2.005   5.388
   95POPS   H5S10294   7.645   1.852   5.301
   95POPS   C2610295   7.790   1.996   5.255
   95POPS   H6R10296   7.875   1.928   5.251
   95POPS   H6S10297   7.832   2.094   5.286
   95POPS   C2710298   7.725   1.996   5.117
   95POPS   H7R10299   7.618   2.027   5.126
   95POPS   H7S10300   7.726   1.891   5.080
   95POPS   C2810301   7.798   2.083   5.015
   95POPS   H8R10302   7.850   2.016   4.942
   95POPS   H8S10303   7.880   2.132   5.071
   95POPS   C2910304   7.714   2.188   4.947
   95POPS   H9110305   7.697   2.280   5.004
   95POPS  C21010306   7.654   2.174   4.829
   95POPS  H10110307   7.587   2.252   4.791
   95POPS  C21110308   7.661   2.049   4.747
   95POPS  H11R10309   7.755   1.990   4.759
   95POPS  H11S10310   7.647   2.068   4.638
   95POPS  C21210311   7.545   1.966   4.801
   95POPS  H12R10312   7.564   1.934   4.906
   95POPS  H12S10313   7.543   1.876   4.735
   95POPS  C21310314   7.405   2.031   4.796
   95POPS  H13R10315   7.395   2.112   4.872
   95POPS  H13S10316   7.328   1.956   4.820
   95POPS  C21410317   7.379   2.081   4.656
   95POPS  H14R10318   7.411   1.999   4.587
   95POPS  H14S10319   7.442   2.170   4.635
   95POPS  C21510320   7.233   2.112   4.625
   95POPS  H15R10321   7.206   2.212   4.667
   95POPS  H15S10322   7.167   2.037   4.673
   95POPS  C21610323   7.211   2.108   4.474
   95POPS  H16R10324   7.107   2.137   4.450
   95POPS  H16S10325   7.226   2.002   4.442
   95POPS  C21710326   7.309   2.194   4.392
   95POPS  H17R10327   7.284   2.181   4.284
   95POPS  H17S10328   7.413   2.155   4.405
   95POPS  C21810329   7.306   2.343   4.427
   95POPS  H18R10330   7.375   2.400   4.362
   95POPS  H18S10331   7.337   2.359   4.533
   95POPS  H18T10332   7.203   2.383   4.414
   95POPS   C3310333   7.254   1.945   5.657
   95POPS   H3X10334   7.315   1.952   5.750
   95POPS   H3Y10335   7.233   2.049   5.624
   95POPS   C3410336   7.339   1.878   5.548
   95POPS   H4X10337   7.361   1.773   5.576
   95POPS   H4Y10338   7.433   1.936   5.536
   95POPS   C3510339   7.273   1.864   5.413
   95POPS   H5X10340   7.237   1.965   5.381
   95POPS   H5Y10341   7.185   1.802   5.426
   95POPS   C3610342   7.363   1.809   5.300
   95POPS   H6X10343   7.441   1.886   5.281
   95POPS   H6Y10344   7.294   1.817   5.218
   95POPS   C3710345   7.432   1.667   5.292
   95POPS   H7X10346   7.496   1.650   5.380
   95POPS   H7Y10347   7.502   1.675   5.206
   95POPS   C3810348   7.355   1.532   5.268
   95POPS   H8X10349   7.321   1.508   5.372
   95POPS   H8Y10350   7.428   1.453   5.240
   95POPS   C3910351   7.228   1.524   5.178
   95POPS   H9X10352   7.202   1.629   5.175
   95POPS   H9Y10353   7.149   1.470   5.236
   95POPS  C31010354   7.221   1.468   5.032
   95POPS  H10X10355   7.197   1.363   5.055
   95POPS  H10Y10356   7.321   1.464   4.987
   95POPS  C31110357   7.107   1.513   4.928
   95POPS  H11X10358   7.039   1.589   4.968
   95POPS  H11Y10359   7.047   1.421   4.922
   95POPS  C31210360   7.132   1.559   4.779
   95POPS  H12X10361   7.158   1.472   4.718
   95POPS  H12Y10362   7.217   1.625   4.775
   95POPS  C31310363   7.048   1.663   4.696
   95POPS  H13X10364   7.037   1.762   4.744
   95POPS  H13Y10365   6.945   1.632   4.681
   95POPS  C31410366   7.128   1.692   4.565
   95POPS  H14X10367   7.192   1.602   4.547
   95POPS  H14Y10368   7.199   1.776   4.586
   95POPS  C31510369   7.058   1.718   4.430
   95POPS  H15X10370   7.000   1.628   4.402
   95POPS  H15Y10371   7.139   1.725   4.354
   95POPS  C31610372   6.970   1.842   4.415
   95POPS  H16X10373   6.897   1.851   4.498
   95POPS  H16Y10374   6.915   1.837   4.319
   95POPS  H16Z10375   7.032   1.934   4.412
   96POPS     N10376   7.263   6.306   6.265
   96POPS   HN110377   7.301   6.344   6.353
   96POPS   HN210378   7.326   6.331   6.186
   96POPS   HN310379   7.165   6.335   6.248
   96POPS   C1210380   7.262   6.158   6.272
   96POPS  H12A10381   7.218   6.128   6.366
   96POPS   C1310382   7.406   6.104   6.273
   96POPS  O13A10383   7.500   6.189   6.268
   96POPS  O13B10384   7.421   5.981   6.288
   96POPS   C1110385   7.171   6.106   6.159
   96POPS  H11A10386   7.173   5.995   6.158
   96POPS  H11B10387   7.207   6.143   6.060
   96POPS     P10388   6.928   6.173   6.080
   96POPS   O1310389   6.803   6.203   6.151
   96POPS   O1410390   6.929   6.058   5.987
   96POPS   O1210391   7.039   6.152   6.189
   96POPS   O1110392   6.986   6.304   6.007
   96POPS    C110393   6.993   6.427   6.082
   96POPS    HA10394   7.063   6.418   6.167
   96POPS    HB10395   6.893   6.450   6.125
   96POPS    C210396   7.032   6.558   6.003
   96POPS    HS10397   6.958   6.637   6.030
   96POPS   O2110398   7.036   6.541   5.862
   96POPS   C2110399   6.917   6.535   5.808
   96POPS   O2210400   6.811   6.512   5.864
   96POPS   C2210401   6.934   6.587   5.667
   96POPS   H2R10402   6.974   6.690   5.674
   96POPS   H2S10403   6.836   6.593   5.618
   96POPS    C310404   7.170   6.618   6.044
   96POPS    HX10405   7.159   6.657   6.146
   96POPS    HY10406   7.190   6.708   5.981
   96POPS   O3110407   7.274   6.518   6.041
   96POPS   C3110408   7.337   6.513   5.924
   96POPS   O3210409   7.352   6.605   5.846
   96POPS   C3210410   7.386   6.371   5.901
   96POPS   H2X10411   7.367   6.309   5.991
   96POPS   H2Y10412   7.495   6.375   5.885
   96POPS   C2310413   7.035   6.505   5.586
   96POPS   H3R10414   7.137   6.511   5.631
   96POPS   H3S10415   7.043   6.551   5.486
   96POPS   C2410416   6.994   6.359   5.569
   96POPS   H4R10417   6.889   6.352   5.534
   96POPS   H4S10418   7.000   6.307   5.667
   96POPS   C2510419   7.086   6.289   5.468
   96POPS   H5R10420   7.058   6.182   5.462
   96POPS   H5S10421   7.189   6.296   5.510
   96POPS   C2610422   7.092   6.351   5.328
   96POPS   H6R10423   7.151   6.284   5.262
   96POPS   H6S10424   7.148   6.447   5.333
   96POPS   C2710425   6.955   6.377   5.263
   96POPS   H7R10426   6.973   6.424   5.163
   96POPS   H7S10427   6.900   6.452   5.324
   96POPS   C2810428   6.867   6.252   5.246
   96POPS   H8R10429   6.773   6.283   5.197
   96POPS   H8S10430   6.839   6.213   5.346
   96POPS   C2910431   6.934   6.143   5.166
   96POPS   H9110432   6.976   6.060   5.225
   96POPS  C21010433   6.947   6.140   5.032
   96POPS  H10110434   6.997   6.054   4.986
   96POPS  C21110435   6.898   6.245   4.935
   96POPS  H11R10436   6.857   6.334   4.988
   96POPS  H11S10437   6.815   6.202   4.876
   96POPS  C21210438   7.004   6.297   4.835
   96POPS  H12R10439   7.054   6.211   4.785
   96POPS  H12S10440   7.081   6.357   4.888
   96POPS  C21310441   6.941   6.384   4.727
   96POPS  H13R10442   6.909   6.479   4.777
   96POPS  H13S10443   6.851   6.330   4.691
   96POPS  C21410444   7.030   6.421   4.607
   96POPS  H14R10445   7.136   6.427   4.637
   96POPS  H14S10446   6.999   6.522   4.575
   96POPS  C21510447   7.013   6.333   4.483
   96POPS  H15R10448   6.907   6.303   4.468
   96POPS  H15S10449   7.069   6.239   4.499
   96POPS  C21610450   7.057   6.406   4.354
   96POPS  H16R10451   7.163   6.437   4.368
   96POPS  H16S10452   6.999   6.499   4.338
   96POPS  C21710453   7.047   6.316   4.229
   96POPS  H17R10454   7.062   6.210   4.261
   96POPS  H17S10455   7.131   6.342   4.160
   96POPS  C21810456   6.917   6.323   4.152
   96POPS  H18R10457   6.829   6.315   4.220
   96POPS  H18S10458   6.911   6.239   4.080
   96POPS  H18T10459   6.910   6.418   4.095
   96POPS   C3310460   7.317   6.305   5.779
   96POPS   H3X10461   7.339   6.366   5.688
   96POPS   H3Y10462   7.206   6.303   5.792
   96POPS   C3410463   7.368   6.162   5.757
   96POPS   H4X10464   7.324   6.096   5.835
   96POPS   H4Y10465   7.478   6.161   5.771
   96POPS   C3510466   7.340   6.104   5.618
   96POPS   H5X10467   7.232   6.115   5.594
   96POPS   H5Y10468   7.357   5.995   5.622
   96POPS   C3610469   7.429   6.166   5.509
   96POPS   H6X10470   7.535   6.145   5.532
   96POPS   H6Y10471   7.415   6.276   5.510
   96POPS   C3710472   7.399   6.116   5.366
   96POPS   H7X10473   7.289   6.098   5.356
   96POPS   H7Y10474   7.451   6.020   5.348
   96POPS   C3810475   7.442   6.219   5.261
   96POPS   H8X10476   7.540   6.262   5.291
   96POPS   H8Y10477   7.370   6.303   5.260
   96POPS   C3910478   7.456   6.163   5.118
   96POPS   H9X10479   7.541   6.091   5.114
   96POPS   H9Y10480   7.482   6.248   5.052
   96POPS  C31010481   7.330   6.093   5.064
   96POPS  H10X10482   7.247   6.103   5.138
   96POPS  H10Y10483   7.350   5.985   5.052
   96POPS  C31110484   7.281   6.151   4.931
   96POPS  H11X10485   7.246   6.255   4.950
   96POPS  H11Y10486   7.195   6.090   4.898
   96POPS  C31210487   7.385   6.155   4.818
   96POPS  H12X10488   7.450   6.065   4.827
   96POPS  H12Y10489   7.450   6.244   4.829
   96POPS  C31310490   7.320   6.156   4.678
   96POPS  H13X10491   7.247   6.239   4.670
   96POPS  H13Y10492   7.262   6.061   4.666
   96POPS  C31410493   7.423   6.168   4.565
   96POPS  H14X10494   7.519   6.125   4.599
   96POPS  H14Y10495   7.442   6.276   4.544
   96POPS  C31510496   7.382   6.098   4.435
   96POPS  H15X10497   7.312   6.014   4.456
   96POPS  H15Y10498   7.470   6.056   4.385
   96POPS  C31610499   7.322   6.195   4.336
   96POPS  H16X10500   7.390   6.279   4.316
   96POPS  H16Y10501   7.232   6.235   4.383
   96POPS  H16Z10502   7.295   6.146   4.239
   97POPS     N10503   5.847   0.297   6.224
   97POPS   HN110504   5.861   0.386   6.276
   97POPS   HN210505   5.935   0.241   6.231
   97POPS   HN310506   5.823   0.315   6.124
   97POPS   C1210507   5.735   0.215   6.283
   97POPS  H12A10508   5.651   0.281   6.300
   97POPS   C1310509   5.764   0.146   6.417
   97POPS  O13A10510   5.881   0.155   6.463
   97POPS  O13B10511   5.671   0.082   6.472
   97POPS   C1110512   5.692   0.103   6.185
   97POPS  H11A10513   5.622   0.032   6.235
   97POPS  H11B10514   5.781   0.044   6.153
   97POPS     P10515   5.632   0.107   5.931
   97POPS   O1310516   5.589   0.215   5.840
   97POPS   O1410517   5.567  -0.024   5.917
   97POPS   O1210518   5.622   0.163   6.078
   97POPS   O1110519   5.787   0.084   5.919
   97POPS    C110520   5.885   0.182   5.900
   97POPS    HA10521   5.971   0.155   5.965
   97POPS    HB10522   5.850   0.283   5.933
   97POPS    C210523   5.936   0.189   5.754
   97POPS    HS10524   6.001   0.278   5.743
   97POPS   O2110525   5.833   0.198   5.656
   97POPS   C2110526   5.773   0.316   5.658
   97POPS   O2210527   5.780   0.400   5.745
   97POPS   C2210528   5.723   0.344   5.519
   97POPS   H2R10529   5.650   0.427   5.528
   97POPS   H2S10530   5.669   0.255   5.485
   97POPS    C310531   6.027   0.068   5.719
   97POPS    HX10532   6.082   0.044   5.811
   97POPS    HY10533   6.102   0.101   5.643
   97POPS   O3110534   5.955  -0.050   5.684
   97POPS   C3110535   5.955  -0.077   5.555
   97POPS   O3210536   6.029  -0.028   5.472
   97POPS   C3210537   5.856  -0.185   5.532
   97POPS   H2X10538   5.759  -0.160   5.581
   97POPS   H2Y10539   5.898  -0.272   5.584
   97POPS   C2310540   5.841   0.389   5.429
   97POPS   H3R10541   5.895   0.473   5.478
   97POPS   H3S10542   5.795   0.425   5.334
   97POPS   C2410543   5.942   0.281   5.387
   97POPS   H4R10544   5.884   0.194   5.355
   97POPS   H4S10545   6.006   0.250   5.472
   97POPS   C2510546   6.030   0.324   5.267
   97POPS   H5R10547   6.098   0.402   5.303
   97POPS   H5S10548   5.964   0.370   5.191
   97POPS   C2610549   6.113   0.213   5.199
   97POPS   H6R10550   6.192   0.176   5.267
   97POPS   H6S10551   6.162   0.259   5.110
   97POPS   C2710552   6.027   0.095   5.152
   97POPS   H7R10553   5.934   0.140   5.110
   97POPS   H7S10554   5.999   0.035   5.241
   97POPS   C2810555   6.093   0.001   5.050
   97POPS   H8R10556   6.168  -0.063   5.100
   97POPS   H8S10557   6.149   0.064   4.979
   97POPS   C2910558   5.988  -0.083   4.981
   97POPS   H9110559   5.980  -0.187   5.014
   97POPS  C21010560   5.905  -0.039   4.885
   97POPS  H10110561   5.826  -0.106   4.848
   97POPS  C21110562   5.900   0.101   4.829
   97POPS  H11R10563   5.855   0.168   4.906
   97POPS  H11S10564   5.831   0.101   4.741
   97POPS  C21210565   6.028   0.176   4.785
   97POPS  H12R10566   6.076   0.225   4.872
   97POPS  H12S10567   5.994   0.256   4.715
   97POPS  C21310568   6.134   0.096   4.712
   97POPS  H13R10569   6.085   0.005   4.677
   97POPS  H13S10570   6.213   0.060   4.781
   97POPS  C21410571   6.195   0.164   4.589
   97POPS  H14R10572   6.243   0.077   4.538
   97POPS  H14S10573   6.274   0.235   4.619
   97POPS  C21510574   6.093   0.231   4.492
   97POPS  H15R10575   6.076   0.338   4.519
   97POPS  H15S10576   5.995   0.182   4.511
   97POPS  C21610577   6.118   0.210   4.340
   97POPS  H16R10578   6.021   0.211   4.287
   97POPS  H16S10579   6.161   0.109   4.334
   97POPS  C21710580   6.199   0.315   4.263
   97POPS  H17R10581   6.133   0.363   4.187
   97POPS  H17S10582   6.285   0.281   4.205
   97POPS  C21810583   6.248   0.420   4.357
   97POPS  H18R10584   6.155   0.478   4.365
   97POPS  H18S10585   6.333   0.477   4.316
   97POPS  H18T10586   6.277   0.387   4.458
   97POPS   C3310587   5.836  -0.213   5.382
   97POPS   H3X10588   5.815  -0.320   5.370
   97POPS   H3Y10589   5.927  -0.193   5.321
   97POPS   C3410590   5.714  -0.141   5.326
   97POPS   H4X10591   5.625  -0.172   5.384
   97POPS   H4Y10592   5.700  -0.172   5.220
   97POPS   C3510593   5.728   0.009   5.333
   97POPS   H5X10594   5.797   0.041   5.252
   97POPS   H5Y10595   5.772   0.040   5.431
   97POPS   C3610596   5.597   0.083   5.320
   97POPS   H6X10597   5.615   0.193   5.311
   97POPS   H6Y10598   5.542   0.062   5.414
   97POPS   C3710599   5.518   0.041   5.198
   97POPS   H7X10600   5.417   0.088   5.204
   97POPS   H7Y10601   5.508  -0.069   5.196
   97POPS   C3810602   5.584   0.078   5.068
   97POPS   H8X10603   5.532   0.022   4.988
   97POPS   H8Y10604   5.691   0.047   5.065
   97POPS   C3910605   5.572   0.227   5.042
   97POPS   H9X10606   5.654   0.282   5.096
   97POPS   H9Y10607   5.475   0.265   5.080
   97POPS  C31010608   5.582   0.248   4.894
   97POPS  H10X10609   5.665   0.187   4.853
   97POPS  H10Y10610   5.606   0.354   4.877
   97POPS  C31110611   5.458   0.207   4.815
   97POPS  H11X10612   5.365   0.233   4.870
   97POPS  H11Y10613   5.456   0.097   4.797
   97POPS  C31210614   5.463   0.281   4.683
   97POPS  H12X10615   5.484   0.386   4.705
   97POPS  H12Y10616   5.363   0.278   4.637
   97POPS  C31310617   5.573   0.231   4.591
   97POPS  H13X10618   5.668   0.213   4.645
   97POPS  H13Y10619   5.597   0.309   4.515
   97POPS  C31410620   5.528   0.103   4.522
   97POPS  H14X10621   5.504   0.023   4.596
   97POPS  H14Y10622   5.611   0.066   4.459
   97POPS  C31510623   5.407   0.130   4.434
   97POPS  H15X10624   5.316   0.148   4.496
   97POPS  H15Y10625   5.386   0.036   4.381
   97POPS  C31610626   5.427   0.245   4.335
   97POPS  H16X10627   5.418   0.343   4.386
   97POPS  H16Y10628   5.352   0.242   4.253
   97POPS  H16Z10629   5.528   0.240   4.289
   98POPS     N10630   6.893   7.242   6.216
   98POPS   HN110631   6.883   7.224   6.113
   98POPS   HN210632   6.837   7.326   6.246
   98POPS   HN310633   6.993   7.257   6.237
   98POPS   C1210634   6.846   7.124   6.293
   98POPS  H12A10635   6.741   7.139   6.312
   98POPS   C1310636   6.913   7.107   6.432
   98POPS  O13A10637   6.978   7.203   6.482
   98POPS  O13B10638   6.900   6.997   6.491
   98POPS   C1110639   6.859   7.000   6.203
   98POPS  H11A10640   6.820   6.912   6.260
   98POPS  H11B10641   6.966   6.981   6.180
   98POPS     P10642   6.781   6.907   5.978
   98POPS   O1310643   6.712   6.955   5.857
   98POPS   O1410644   6.725   6.790   6.050
   98POPS   O1210645   6.781   7.024   6.083
   98POPS   O1110646   6.936   6.893   5.953
   98POPS    C110647   6.990   6.908   5.822
   98POPS    HA10648   6.916   6.887   5.741
   98POPS    HB10649   7.071   6.833   5.811
   98POPS    C210650   7.051   7.049   5.794
   98POPS    HS10651   7.106   7.086   5.883
   98POPS   O2110652   6.948   7.140   5.748
   98POPS   C2110653   6.901   7.228   5.835
   98POPS   O2210654   6.944   7.248   5.948
   98POPS   C2210655   6.785   7.308   5.774
   98POPS   H2R10656   6.716   7.332   5.858
   98POPS   H2S10657   6.729   7.243   5.704
   98POPS    C310658   7.154   7.029   5.679
   98POPS    HX10659   7.246   6.981   5.721
   98POPS    HY10660   7.181   7.129   5.639
   98POPS   O3110661   7.094   6.948   5.577
   98POPS   C3110662   7.173   6.917   5.476
   98POPS   O3210663   7.294   6.928   5.473
   98POPS   C3210664   7.085   6.896   5.354
   98POPS   H2X10665   7.143   6.926   5.265
   98POPS   H2Y10666   7.000   6.966   5.368
   98POPS   C2310667   6.830   7.441   5.708
   98POPS   H3R10668   6.890   7.500   5.781
   98POPS   H3S10669   6.739   7.500   5.683
   98POPS   C2410670   6.910   7.421   5.578
   98POPS   H4R10671   7.009   7.377   5.602
   98POPS   H4S10672   6.928   7.521   5.532
   98POPS   C2510673   6.842   7.329   5.476
   98POPS   H5R10674   6.736   7.360   5.459
   98POPS   H5S10675   6.841   7.225   5.515
   98POPS   C2610676   6.918   7.330   5.344
   98POPS   H6R10677   7.025   7.322   5.371
   98POPS   H6S10678   6.902   7.427   5.294
   98POPS   C2710679   6.889   7.211   5.251
   98POPS   H7R10680   6.780   7.212   5.227
   98POPS   H7S10681   6.909   7.120   5.308
   98POPS   C2810682   6.972   7.215   5.120
   98POPS   H8R10683   7.012   7.318   5.120
   98POPS   H8S10684   6.902   7.207   5.034
   98POPS   C2910685   7.101   7.142   5.097
   98POPS   H9110686   7.158   7.121   5.188
   98POPS  C21010687   7.146   7.092   4.981
   98POPS  H10110688   7.246   7.047   4.978
   98POPS  C21110689   7.076   7.097   4.847
   98POPS  H11R10690   7.149   7.107   4.764
   98POPS  H11S10691   7.002   7.179   4.837
   98POPS  C21210692   7.007   6.960   4.845
   98POPS  H12R10693   6.924   6.958   4.920
   98POPS  H12S10694   7.081   6.882   4.876
   98POPS  C21310695   6.951   6.908   4.712
   98POPS  H13R10696   6.980   6.972   4.626
   98POPS  H13S10697   6.840   6.909   4.720
   98POPS  C21410698   6.994   6.762   4.691
   98POPS  H14R10699   6.923   6.713   4.621
   98POPS  H14S10700   6.985   6.707   4.788
   98POPS  C21510701   7.137   6.749   4.636
   98POPS  H15R10702   7.176   6.646   4.655
   98POPS  H15S10703   7.205   6.821   4.687
   98POPS  C21610704   7.134   6.774   4.486
   98POPS  H16R10705   7.104   6.880   4.469
   98POPS  H16S10706   7.055   6.708   4.443
   98POPS  C21710707   7.261   6.747   4.405
   98POPS  H17R10708   7.285   6.639   4.412
   98POPS  H17S10709   7.346   6.805   4.447
   98POPS  C21810710   7.235   6.787   4.260
   98POPS  H18R10711   7.318   6.753   4.193
   98POPS  H18S10712   7.224   6.897   4.252
   98POPS  H18T10713   7.140   6.741   4.224
   98POPS   C3310714   7.025   6.757   5.332
   98POPS   H3X10715   6.960   6.731   5.419
   98POPS   H3Y10716   7.105   6.681   5.321
   98POPS   C3410717   6.938   6.757   5.206
   98POPS   H4X10718   6.891   6.657   5.195
   98POPS   H4Y10719   7.001   6.774   5.115
   98POPS   C3510720   6.828   6.864   5.210
   98POPS   H5X10721   6.868   6.960   5.170
   98POPS   H5Y10722   6.793   6.880   5.314
   98POPS   C3610723   6.711   6.822   5.124
   98POPS   H6X10724   6.686   6.717   5.153
   98POPS   H6Y10725   6.748   6.822   5.019
   98POPS   C3710726   6.583   6.905   5.137
   98POPS   H7X10727   6.604   7.011   5.113
   98POPS   H7Y10728   6.546   6.901   5.242
   98POPS   C3810729   6.473   6.851   5.044
   98POPS   H8X10730   6.384   6.918   5.048
   98POPS   H8Y10731   6.439   6.752   5.078
   98POPS   C3910732   6.517   6.838   4.898
   98POPS   H9X10733   6.438   6.784   4.842
   98POPS   H9Y10734   6.609   6.777   4.884
   98POPS  C31010735   6.539   6.978   4.844
   98POPS  H10X10736   6.625   7.027   4.896
   98POPS  H10Y10737   6.448   7.035   4.874
   98POPS  C31110738   6.557   6.994   4.694
   98POPS  H11X10739   6.497   6.922   4.635
   98POPS  H11Y10740   6.662   6.981   4.663
   98POPS  C31210741   6.511   7.135   4.667
   98POPS  H12X10742   6.576   7.201   4.727
   98POPS  H12Y10743   6.408   7.150   4.706
   98POPS  C31310744   6.507   7.171   4.521
   98POPS  H13X10745   6.403   7.198   4.492
   98POPS  H13Y10746   6.531   7.080   4.461
   98POPS  C31410747   6.597   7.287   4.480
   98POPS  H14X10748   6.536   7.379   4.471
   98POPS  H14Y10749   6.632   7.255   4.380
   98POPS  C31510750   6.725   7.320   4.557
   98POPS  H15X10751   6.719   7.314   4.667
   98POPS  H15Y10752   6.743   7.428   4.534
   98POPS  C31610753   6.846   7.241   4.505
   98POPS  H16X10754   6.941   7.276   4.549
   98POPS  H16Y10755   6.852   7.252   4.395
   98POPS  H16Z10756   6.834   7.133   4.530
   99POPS     N10757   7.110   0.637   5.955
   99POPS   HN110758   7.137   0.539   5.980
   99POPS   HN210759   7.037   0.636   5.883
   99POPS   HN310760   7.194   0.694   5.925
   99POPS   C1210761   7.070   0.708   6.078
   99POPS  H12A10762   6.965   0.731   6.078
   99POPS   C1310763   7.154   0.833   6.097
   99POPS  O13A10764   7.259   0.844   6.028
   99POPS  O13B10765   7.116   0.912   6.186
   99POPS   C1110766   7.112   0.628   6.200
   99POPS  H11A10767   7.106   0.691   6.292
   99POPS  H11B10768   7.218   0.595   6.189
   99POPS     P10769   7.062   0.411   6.316
   99POPS   O1310770   6.941   0.368   6.386
   99POPS   O1410771   7.169   0.468   6.402
   99POPS   O1210772   7.020   0.521   6.211
   99POPS   O1110773   7.119   0.303   6.216
   99POPS    C110774   7.034   0.271   6.107
   99POPS    HA10775   6.946   0.338   6.093
   99POPS    HB10776   6.992   0.169   6.123
   99POPS    C210777   7.108   0.272   5.972
   99POPS    HS10778   7.165   0.176   5.970
   99POPS   O2110779   7.193   0.388   5.951
   99POPS   C2110780   7.324   0.361   5.942
   99POPS   O2210781   7.375   0.256   5.977
   99POPS   C2210782   7.388   0.474   5.861
   99POPS   H2R10783   7.421   0.555   5.929
   99POPS   H2S10784   7.311   0.513   5.792
   99POPS    C310785   6.999   0.266   5.862
   99POPS    HX10786   6.913   0.208   5.903
   99POPS    HY10787   7.040   0.201   5.781
   99POPS   O3110788   6.949   0.398   5.821
   99POPS   C3110789   6.959   0.415   5.689
   99POPS   O3210790   7.029   0.348   5.617
   99POPS   C3210791   6.877   0.534   5.636
   99POPS   H2X10792   6.869   0.609   5.717
   99POPS   H2Y10793   6.774   0.497   5.613
   99POPS   C2310794   7.507   0.426   5.774
   99POPS   H3R10795   7.478   0.339   5.712
   99POPS   H3S10796   7.589   0.392   5.842
   99POPS   C2410797   7.566   0.535   5.681
   99POPS   H4R10798   7.662   0.498   5.639
   99POPS   H4S10799   7.592   0.623   5.745
   99POPS   C2510800   7.477   0.585   5.566
   99POPS   H5R10801   7.500   0.693   5.550
   99POPS   H5S10802   7.369   0.578   5.591
   99POPS   C2610803   7.507   0.516   5.432
   99POPS   H6R10804   7.487   0.408   5.439
   99POPS   H6S10805   7.616   0.529   5.413
   99POPS   C2710806   7.429   0.577   5.315
   99POPS   H7R10807   7.439   0.688   5.320
   99POPS   H7S10808   7.321   0.550   5.325
   99POPS   C2810809   7.482   0.529   5.180
   99POPS   H8R10810   7.469   0.419   5.174
   99POPS   H8S10811   7.591   0.549   5.174
   99POPS   C2910812   7.413   0.598   5.066
   99POPS   H9110813   7.364   0.693   5.089
   99POPS  C21010814   7.408   0.552   4.941
   99POPS  H10110815   7.358   0.608   4.862
   99POPS  C21110816   7.474   0.424   4.899
   99POPS  H11R10817   7.548   0.387   4.974
   99POPS  H11S10818   7.530   0.448   4.808
   99POPS  C21210819   7.375   0.309   4.873
   99POPS  H12R10820   7.312   0.292   4.963
   99POPS  H12S10821   7.432   0.214   4.854
   99POPS  C21310822   7.289   0.335   4.750
   99POPS  H13R10823   7.240   0.434   4.762
   99POPS  H13S10824   7.208   0.258   4.745
   99POPS  C21410825   7.369   0.334   4.620
   99POPS  H14R10826   7.392   0.228   4.592
   99POPS  H14S10827   7.466   0.387   4.630
   99POPS  C21510828   7.295   0.404   4.507
   99POPS  H15R10829   7.354   0.387   4.414
   99POPS  H15S10830   7.293   0.514   4.526
   99POPS  C21610831   7.152   0.353   4.496
   99POPS  H16R10832   7.094   0.377   4.588
   99POPS  H16S10833   7.153   0.243   4.486
   99POPS  C21710834   7.080   0.416   4.378
   99POPS  H17R10835   7.073   0.524   4.401
   99POPS  H17S10836   6.977   0.374   4.372
   99POPS  C21810837   7.153   0.400   4.246
   99POPS  H18R10838   7.249   0.454   4.249
   99POPS  H18S10839   7.093   0.442   4.163
   99POPS  H18T10840   7.175   0.293   4.225
   99POPS   C3310841   6.938   0.600   5.508
   99POPS   H3X10842   7.045   0.623   5.523
   99POPS   H3Y10843   6.886   0.697   5.492
   99POPS   C3410844   6.921   0.518   5.377
   99POPS   H4X10845   6.813   0.496   5.362
   99POPS   H4Y10846   6.975   0.421   5.387
   99POPS   C3510847   6.974   0.588   5.249
   99POPS   H5X10848   7.079   0.619   5.267
   99POPS   H5Y10849   6.908   0.677   5.233
   99POPS   C3610850   6.971   0.505   5.119
   99POPS   H6X10851   6.867   0.466   5.114
   99POPS   H6Y10852   7.043   0.421   5.131
   99POPS   C3710853   6.993   0.570   4.980
   99POPS   H7X10854   7.026   0.488   4.911
   99POPS   H7Y10855   7.074   0.645   4.982
   99POPS   C3810856   6.861   0.623   4.921
   99POPS   H8X10857   6.809   0.684   4.997
   99POPS   H8Y10858   6.798   0.533   4.906
   99POPS   C3910859   6.860   0.703   4.788
   99POPS   H9X10860   6.850   0.810   4.813
   99POPS   H9Y10861   6.767   0.677   4.733
   99POPS  C31010862   6.977   0.688   4.690
   99POPS  H10X10863   6.975   0.587   4.643
   99POPS  H10Y10864   7.074   0.698   4.744
   99POPS  C31110865   6.971   0.798   4.581
   99POPS  H11X10866   7.058   0.784   4.512
   99POPS  H11Y10867   6.983   0.897   4.631
   99POPS  C31210868   6.842   0.800   4.496
   99POPS  H12X10869   6.846   0.890   4.431
   99POPS  H12Y10870   6.752   0.809   4.560
   99POPS  C31310871   6.835   0.675   4.408
   99POPS  H13X10872   6.807   0.588   4.472
   99POPS  H13Y10873   6.938   0.659   4.370
   99POPS  C31410874   6.747   0.678   4.282
   99POPS  H14X10875   6.644   0.712   4.304
   99POPS  H14Y10876   6.741   0.572   4.247
   99POPS  C31510877   6.812   0.758   4.168
   99POPS  H15X10878   6.922   0.740   4.170
   99POPS  H15Y10879   6.797   0.867   4.186
   99POPS  C31610880   6.762   0.721   4.028
   99POPS  H16X10881   6.829   0.762   3.950
   99POPS  H16Y10882   6.660   0.760   4.010
   99POPS  H16Z10883   6.761   0.611   4.014
  100POPS     N10884   6.385  -0.146   6.227
  100POPS   HN110885   6.340  -0.228   6.273
  100POPS   HN210886   6.386  -0.064   6.291
  100POPS   HN310887   6.333  -0.121   6.138
  100POPS   C1210888   6.529  -0.174   6.196
  100POPS  H12A10889   6.531  -0.254   6.123
  100POPS   C1310890   6.610  -0.227   6.318
  100POPS  O13A10891   6.561  -0.228   6.434
  100POPS  O13B10892   6.724  -0.274   6.292
  100POPS   C1110893   6.598  -0.049   6.130
  100POPS  H11A10894   6.554  -0.038   6.028
  100POPS  H11B10895   6.707  -0.068   6.116
  100POPS     P10896   6.606   0.212   6.133
  100POPS   O1310897   6.739   0.213   6.069
  100POPS   O1410898   6.562   0.323   6.219
  100POPS   O1210899   6.581   0.071   6.207
  100POPS   O1110900   6.500   0.195   6.017
  100POPS    C110901   6.364   0.195   6.055
  100POPS    HA10902   6.337   0.291   6.105
  100POPS    HB10903   6.342   0.113   6.127
  100POPS    C210904   6.276   0.180   5.930
  100POPS    HS10905   6.174   0.155   5.967
  100POPS   O2110906   6.323   0.080   5.835
  100POPS   C2110907   6.312  -0.042   5.882
  100POPS   O2210908   6.265  -0.070   5.992
  100POPS   C2210909   6.362  -0.152   5.787
  100POPS   H2R10910   6.409  -0.231   5.851
  100POPS   H2S10911   6.439  -0.111   5.719
  100POPS    C310912   6.265   0.320   5.862
  100POPS    HX10913   6.256   0.397   5.941
  100POPS    HY10914   6.172   0.325   5.804
  100POPS   O3110915   6.379   0.352   5.782
  100POPS   C3110916   6.367   0.318   5.656
  100POPS   O3210917   6.270   0.267   5.603
  100POPS   C3210918   6.493   0.363   5.586
  100POPS   H2X10919   6.579   0.344   5.652
  100POPS   H2Y10920   6.485   0.473   5.572
  100POPS   C2310921   6.247  -0.217   5.708
  100POPS   H3R10922   6.195  -0.138   5.649
  100POPS   H3S10923   6.171  -0.260   5.778
  100POPS   C2410924   6.288  -0.329   5.609
  100POPS   H4R10925   6.195  -0.373   5.568
  100POPS   H4S10926   6.343  -0.410   5.662
  100POPS   C2510927   6.370  -0.279   5.488
  100POPS   H5R10928   6.471  -0.249   5.522
  100POPS   H5S10929   6.319  -0.190   5.446
  100POPS   C2610930   6.382  -0.386   5.378
  100POPS   H6R10931   6.280  -0.408   5.338
  100POPS   H6S10932   6.420  -0.480   5.424
  100POPS   C2710933   6.475  -0.350   5.260
  100POPS   H7R10934   6.473  -0.435   5.188
  100POPS   H7S10935   6.579  -0.342   5.299
  100POPS   C2810936   6.439  -0.220   5.185
  100POPS   H8R10937   6.442  -0.135   5.257
  100POPS   H8S10938   6.334  -0.227   5.149
  100POPS   C2910939   6.534  -0.189   5.071
  100POPS   H9110940   6.621  -0.129   5.100
  100POPS  C21010941   6.522  -0.228   4.943
  100POPS  H10110942   6.601  -0.199   4.871
  100POPS  C21110943   6.412  -0.312   4.884
  100POPS  H11R10944   6.337  -0.344   4.960
  100POPS  H11S10945   6.456  -0.404   4.845
  100POPS  C21210946   6.337  -0.242   4.769
  100POPS  H12R10947   6.406  -0.205   4.690
  100POPS  H12S10948   6.284  -0.154   4.812
  100POPS  C21310949   6.232  -0.333   4.705
  100POPS  H13R10950   6.179  -0.388   4.785
  100POPS  H13S10951   6.277  -0.407   4.636
  100POPS  C21410952   6.131  -0.246   4.631
  100POPS  H14R10953   6.189  -0.181   4.562
  100POPS  H14S10954   6.080  -0.185   4.708
  100POPS  C21510955   6.021  -0.319   4.554
  100POPS  H15R10956   5.973  -0.396   4.617
  100POPS  H15S10957   6.069  -0.370   4.468
  100POPS  C21610958   5.911  -0.225   4.503
  100POPS  H16R10959   5.831  -0.216   4.580
  100POPS  H16S10960   5.865  -0.270   4.412
  100POPS  C21710961   5.958  -0.083   4.470
  100POPS  H17R10962   6.065  -0.078   4.440
  100POPS  H17S10963   5.941  -0.022   4.561
  100POPS  C21810964   5.874  -0.018   4.364
  100POPS  H18R10965   5.768  -0.039   4.388
  100POPS  H18S10966   5.901  -0.060   4.265
  100POPS  H18T10967   5.886   0.091   4.359
  100POPS   C3310968   6.504   0.288   5.454
  100POPS   H3X10969   6.595   0.322   5.400
  100POPS   H3Y10970   6.417   0.316   5.389
  100POPS   C3410971   6.505   0.136   5.470
  100POPS   H4X10972   6.519   0.092   5.369
  100POPS   H4Y10973   6.402   0.101   5.497
  100POPS   C3510974   6.600   0.076   5.577
  100POPS   H5X10975   6.608  -0.033   5.555
  100POPS   H5Y10976   6.550   0.085   5.676
  100POPS   C3610977   6.743   0.131   5.596
  100POPS   H6X10978   6.802   0.054   5.649
  100POPS   H6Y10979   6.742   0.220   5.663
  100POPS   C3710980   6.818   0.168   5.467
  100POPS   H7X10981   6.927   0.176   5.489
  100POPS   H7Y10982   6.787   0.269   5.435
  100POPS   C3810983   6.802   0.065   5.356
  100POPS   H8X10984   6.698   0.039   5.333
  100POPS   H8Y10985   6.851  -0.029   5.388
  100POPS   C3910986   6.862   0.111   5.224
  100POPS   H9X10987   6.847   0.028   5.153
  100POPS   H9Y10988   6.971   0.127   5.241
  100POPS  C31010989   6.806   0.235   5.157
  100POPS  H10X10990   6.893   0.272   5.099
  100POPS  H10Y10991   6.775   0.313   5.230
  100POPS  C31110992   6.699   0.216   5.049
  100POPS  H11X10993   6.686   0.315   5.002
  100POPS  H11Y10994   6.601   0.186   5.093
  100POPS  C31210995   6.740   0.119   4.939
  100POPS  H12X10996   6.702   0.019   4.965
  100POPS  H12Y10997   6.852   0.115   4.933
  100POPS  C31310998   6.688   0.158   4.801
  100POPS  H13X10999   6.580   0.184   4.809
  100POPS  H13Y11000   6.697   0.070   4.733
  100POPS  C31411001   6.766   0.276   4.742
  100POPS  H14X11002   6.872   0.246   4.721
  100POPS  H14Y11003   6.770   0.358   4.816
  100POPS  C31511004   6.702   0.328   4.615
  100POPS  H15X11005   6.739   0.431   4.595
  100POPS  H15Y11006   6.591   0.333   4.628
  100POPS  C31611007   6.736   0.238   4.499
  100POPS  H16X11008   6.707   0.133   4.519
  100POPS  H16Y11009   6.846   0.239   4.483
  100POPS  H16Z11010   6.684   0.274   4.408
  101POPS     N11011   3.156   3.781   2.369
  101POPS   HN111012   3.102   3.697   2.401
  101POPS   HN211013   3.251   3.756   2.333
  101POPS   HN311014   3.159   3.854   2.444
  101POPS   C1211015   3.087   3.846   2.252
  101POPS  H12A11016   2.991   3.798   2.235
  101POPS   C1311017   3.175   3.840   2.125
  101POPS  O13A11018   3.300   3.850   2.143
  101POPS  O13B11019   3.124   3.828   2.011
  101POPS   C1111020   3.067   3.998   2.286
  101POPS  H11A11021   2.975   4.036   2.234
  101POPS  H11B11022   3.152   4.058   2.246
  101POPS     P11023   2.929   3.994   2.504
  101POPS   O1311024   2.973   3.934   2.632
  101POPS   O1411025   2.843   3.907   2.422
  101POPS   O1211026   3.064   4.019   2.427
  101POPS   O1111027   2.866   4.136   2.523
  101POPS    C111028   2.945   4.254   2.520
  101POPS    HA11029   2.878   4.339   2.496
  101POPS    HB11030   3.021   4.252   2.439
  101POPS    C211031   3.015   4.282   2.656
  101POPS    HS11032   3.061   4.383   2.648
  101POPS   O2111033   3.118   4.181   2.675
  101POPS   C2111034   3.143   4.107   2.781
  101POPS   O2211035   3.104   4.121   2.895
  101POPS   C2211036   3.246   3.999   2.737
  101POPS   H2R11037   3.301   4.037   2.649
  101POPS   H2S11038   3.190   3.909   2.708
  101POPS    C311039   2.909   4.287   2.770
  101POPS    HX11040   2.831   4.360   2.741
  101POPS    HY11041   2.961   4.330   2.859
  101POPS   O3111042   2.848   4.160   2.798
  101POPS   C3111043   2.819   4.145   2.926
  101POPS   O3211044   2.806   4.237   3.005
  101POPS   C3211045   2.802   3.997   2.960
  101POPS   H2X11046   2.877   3.940   2.903
  101POPS   H2Y11047   2.701   3.968   2.925
  101POPS   C2311048   3.346   3.962   2.848
  101POPS   H3R11049   3.371   4.051   2.909
  101POPS   H3S11050   3.441   3.926   2.803
  101POPS   C2411051   3.293   3.855   2.943
  101POPS   H4R11052   3.289   3.758   2.889
  101POPS   H4S11053   3.191   3.883   2.976
  101POPS   C2511054   3.383   3.842   3.066
  101POPS   H5R11055   3.428   3.942   3.087
  101POPS   H5S11056   3.466   3.772   3.041
  101POPS   C2611057   3.315   3.796   3.196
  101POPS   H6R11058   3.207   3.774   3.178
  101POPS   H6S11059   3.317   3.879   3.270
  101POPS   C2711060   3.380   3.673   3.258
  101POPS   H7R11061   3.490   3.679   3.257
  101POPS   H7S11062   3.356   3.585   3.193
  101POPS   C2811063   3.329   3.646   3.400
  101POPS   H8R11064   3.353   3.540   3.425
  101POPS   H8S11065   3.221   3.651   3.389
  101POPS   C2911066   3.370   3.730   3.518
  101POPS   H9111067   3.474   3.765   3.523
  101POPS  C21011068   3.283   3.772   3.611
  101POPS  H10111069   3.321   3.812   3.705
  101POPS  C21111070   3.135   3.741   3.608
  101POPS  H11R11071   3.087   3.757   3.707
  101POPS  H11S11072   3.116   3.635   3.581
  101POPS  C21211073   3.066   3.836   3.508
  101POPS  H12R11074   2.956   3.817   3.515
  101POPS  H12S11075   3.096   3.811   3.403
  101POPS  C21311076   3.094   3.986   3.530
  101POPS  H13R11077   3.031   4.041   3.457
  101POPS  H13S11078   3.199   4.008   3.504
  101POPS  C21411079   3.061   4.035   3.673
  101POPS  H14R11080   2.993   3.961   3.719
  101POPS  H14S11081   3.006   4.132   3.665
  101POPS  C21511082   3.179   4.057   3.769
  101POPS  H15R11083   3.207   4.165   3.763
  101POPS  H15S11084   3.268   4.001   3.737
  101POPS  C21611085   3.145   4.028   3.917
  101POPS  H16R11086   3.046   4.072   3.941
  101POPS  H16S11087   3.220   4.081   3.980
  101POPS  C21711088   3.151   3.882   3.964
  101POPS  H17R11089   3.243   3.868   4.025
  101POPS  H17S11090   3.161   3.813   3.878
  101POPS  C21811091   3.030   3.841   4.049
  101POPS  H18R11092   3.040   3.736   4.085
  101POPS  H18S11093   2.936   3.849   3.990
  101POPS  H18T11094   3.023   3.907   4.138
  101POPS   C3311095   2.816   3.970   3.112
  101POPS   H3X11096   2.772   4.055   3.168
  101POPS   H3Y11097   2.923   3.962   3.140
  101POPS   C3411098   2.737   3.844   3.150
  101POPS   H4X11099   2.761   3.764   3.077
  101POPS   H4Y11100   2.632   3.877   3.138
  101POPS   C3511101   2.750   3.786   3.292
  101POPS   H5X11102   2.857   3.774   3.318
  101POPS   H5Y11103   2.705   3.684   3.290
  101POPS   C3611104   2.676   3.865   3.401
  101POPS   H6X11105   2.687   3.809   3.497
  101POPS   H6Y11106   2.567   3.869   3.379
  101POPS   C3711107   2.732   4.006   3.418
  101POPS   H7X11108   2.665   4.081   3.370
  101POPS   H7Y11109   2.831   4.012   3.368
  101POPS   C3811110   2.756   4.043   3.564
  101POPS   H8X11111   2.813   4.139   3.566
  101POPS   H8Y11112   2.818   3.963   3.610
  101POPS   C3911113   2.629   4.058   3.644
  101POPS   H9X11114   2.577   3.960   3.653
  101POPS   H9Y11115   2.563   4.127   3.588
  101POPS  C31011116   2.651   4.123   3.780
  101POPS  H10X11117   2.551   4.123   3.824
  101POPS  H10Y11118   2.683   4.228   3.768
  101POPS  C31111119   2.741   4.051   3.880
  101POPS  H11X11120   2.846   4.050   3.846
  101POPS  H11Y11121   2.707   3.945   3.889
  101POPS  C31211122   2.728   4.122   4.015
  101POPS  H12X11123   2.623   4.161   4.021
  101POPS  H12Y11124   2.795   4.211   4.019
  101POPS  C31311125   2.748   4.032   4.136
  101POPS  H13X11126   2.856   4.030   4.162
  101POPS  H13Y11127   2.716   3.928   4.114
  101POPS  C31411128   2.668   4.083   4.255
  101POPS  H14X11129   2.570   4.029   4.258
  101POPS  H14Y11130   2.645   4.191   4.244
  101POPS  C31511131   2.741   4.064   4.388
  101POPS  H15X11132   2.807   4.152   4.402
  101POPS  H15Y11133   2.808   3.975   4.384
  101POPS  C31611134   2.642   4.047   4.502
  101POPS  H16X11135   2.691   4.056   4.601
  101POPS  H16Y11136   2.596   3.947   4.496
  101POPS  H16Z11137   2.559   4.121   4.495
  102POPS     N11138   4.203   4.987   2.145
  102POPS   HN111139   4.158   5.072   2.107
  102POPS   HN211140   4.264   5.006   2.226
  102POPS   HN311141   4.264   4.949   2.068
  102POPS   C1211142   4.096   4.889   2.181
  102POPS  H12A11143   4.141   4.796   2.211
  102POPS   C1311144   4.011   4.865   2.053
  102POPS  O13A11145   3.981   4.961   1.976
  102POPS  O13B11146   3.985   4.746   2.025
  102POPS   C1111147   4.012   4.949   2.301
  102POPS  H11A11148   3.912   4.980   2.262
  102POPS  H11B11149   4.058   5.042   2.340
  102POPS     P11150   4.101   4.828   2.519
  102POPS   O1311151   4.206   4.742   2.459
  102POPS   O1411152   4.037   4.780   2.643
  102POPS   O1211153   3.991   4.856   2.408
  102POPS   O1111154   4.156   4.976   2.548
  102POPS    C111155   4.090   5.053   2.652
  102POPS    HA11156   4.036   4.991   2.728
  102POPS    HB11157   4.014   5.119   2.604
  102POPS    C211158   4.186   5.142   2.737
  102POPS    HS11159   4.260   5.189   2.667
  102POPS   O2111160   4.254   5.074   2.843
  102POPS   C2111161   4.319   4.967   2.807
  102POPS   O2211162   4.363   4.941   2.697
  102POPS   C2211163   4.337   4.879   2.928
  102POPS   H2R11164   4.284   4.923   3.014
  102POPS   H2S11165   4.445   4.875   2.950
  102POPS    C311166   4.112   5.256   2.812
  102POPS    HX11167   4.049   5.314   2.741
  102POPS    HY11168   4.194   5.321   2.846
  102POPS   O3111169   4.040   5.211   2.932
  102POPS   C3111170   3.917   5.172   2.904
  102POPS   O3211171   3.864   5.185   2.795
  102POPS   C3211172   3.848   5.107   3.023
  102POPS   H2X11173   3.820   5.186   3.095
  102POPS   H2Y11174   3.918   5.036   3.071
  102POPS   C2311175   4.281   4.740   2.893
  102POPS   H3R11176   4.324   4.705   2.797
  102POPS   H3S11177   4.171   4.748   2.878
  102POPS   C2411178   4.311   4.633   2.998
  102POPS   H4R11179   4.416   4.599   2.989
  102POPS   H4S11180   4.242   4.550   2.971
  102POPS   C2511181   4.283   4.672   3.144
  102POPS   H5R11182   4.247   4.583   3.200
  102POPS   H5S11183   4.199   4.744   3.142
  102POPS   C2611184   4.405   4.730   3.216
  102POPS   H6R11185   4.440   4.820   3.162
  102POPS   H6S11186   4.489   4.657   3.213
  102POPS   C2711187   4.378   4.769   3.362
  102POPS   H7R11188   4.465   4.827   3.401
  102POPS   H7S11189   4.371   4.676   3.424
  102POPS   C2811190   4.250   4.852   3.383
  102POPS   H8R11191   4.249   4.889   3.488
  102POPS   H8S11192   4.166   4.781   3.373
  102POPS   C2911193   4.235   4.965   3.283
  102POPS   H9111194   4.180   4.940   3.192
  102POPS  C21011195   4.276   5.091   3.299
  102POPS  H10111196   4.258   5.164   3.218
  102POPS  C21111197   4.345   5.145   3.421
  102POPS  H11R11198   4.429   5.211   3.392
  102POPS  H11S11199   4.388   5.064   3.485
  102POPS  C21211200   4.242   5.225   3.503
  102POPS  H12R11201   4.197   5.302   3.436
  102POPS  H12S11202   4.293   5.276   3.587
  102POPS  C21311203   4.123   5.143   3.558
  102POPS  H13R11204   4.083   5.074   3.481
  102POPS  H13S11205   4.041   5.214   3.582
  102POPS  C21411206   4.157   5.064   3.685
  102POPS  H14R11207   4.267   5.063   3.700
  102POPS  H14S11208   4.125   4.958   3.672
  102POPS  C21511209   4.088   5.123   3.808
  102POPS  H15R11210   3.982   5.145   3.783
  102POPS  H15S11211   4.138   5.219   3.835
  102POPS  C21611212   4.087   5.028   3.928
  102POPS  H16R11213   4.184   4.973   3.935
  102POPS  H16S11214   4.011   4.951   3.906
  102POPS  C21711215   4.061   5.105   4.058
  102POPS  H17R11216   3.955   5.139   4.060
  102POPS  H17S11217   4.124   5.197   4.054
  102POPS  C21811218   4.095   5.032   4.188
  102POPS  H18R11219   4.135   4.930   4.168
  102POPS  H18S11220   4.005   5.023   4.253
  102POPS  H18T11221   4.172   5.089   4.245
  102POPS   C3311222   3.722   5.035   2.969
  102POPS   H3X11223   3.653   5.109   2.923
  102POPS   H3Y11224   3.667   4.991   3.054
  102POPS   C3411225   3.754   4.927   2.863
  102POPS   H4X11226   3.798   4.971   2.771
  102POPS   H4Y11227   3.660   4.886   2.825
  102POPS   C3511228   3.853   4.817   2.905
  102POPS   H5X11229   3.953   4.864   2.914
  102POPS   H5Y11230   3.862   4.742   2.823
  102POPS   C3611231   3.819   4.747   3.037
  102POPS   H6X11232   3.768   4.650   3.018
  102POPS   H6Y11233   3.749   4.810   3.095
  102POPS   C3711234   3.943   4.725   3.125
  102POPS   H7X11235   4.005   4.817   3.124
  102POPS   H7Y11236   4.003   4.642   3.082
  102POPS   C3811237   3.907   4.691   3.271
  102POPS   H8X11238   3.986   4.628   3.315
  102POPS   H8Y11239   3.812   4.632   3.270
  102POPS   C3911240   3.887   4.816   3.358
  102POPS   H9X11241   3.831   4.893   3.300
  102POPS   H9Y11242   3.983   4.863   3.386
  102POPS  C31011243   3.809   4.785   3.487
  102POPS  H10X11244   3.724   4.717   3.463
  102POPS  H10Y11245   3.767   4.880   3.526
  102POPS  C31111246   3.895   4.722   3.597
  102POPS  H11X11247   3.980   4.789   3.619
  102POPS  H11Y11248   3.936   4.624   3.563
  102POPS  C31211249   3.813   4.702   3.726
  102POPS  H12X11250   3.729   4.632   3.706
  102POPS  H12Y11251   3.769   4.800   3.754
  102POPS  C31311252   3.896   4.649   3.844
  102POPS  H13X11253   3.993   4.703   3.849
  102POPS  H13Y11254   3.919   4.541   3.825
  102POPS  C31411255   3.822   4.662   3.979
  102POPS  H14X11256   3.826   4.565   4.033
  102POPS  H14Y11257   3.715   4.686   3.960
  102POPS  C31511258   3.881   4.771   4.070
  102POPS  H15X11259   3.877   4.867   4.015
  102POPS  H15Y11260   3.988   4.747   4.090
  102POPS  C31611261   3.806   4.793   4.200
  102POPS  H16X11262   3.786   4.697   4.252
  102POPS  H16Y11263   3.710   4.845   4.180
  102POPS  H16Z11264   3.865   4.858   4.269
  103POPS     N11265   2.606   4.527   2.465
  103POPS   HN111266   2.703   4.546   2.430
  103POPS   HN211267   2.543   4.609   2.456
  103POPS   HN311268   2.603   4.488   2.560
  103POPS   C1211269   2.556   4.428   2.364
  103POPS  H12A11270   2.515   4.341   2.415
  103POPS   C1311271   2.669   4.386   2.268
  103POPS  O13A11272   2.776   4.452   2.275
  103POPS  O13B11273   2.645   4.294   2.184
  103POPS   C1111274   2.454   4.503   2.275
  103POPS  H11A11275   2.407   4.427   2.207
  103POPS  H11B11276   2.508   4.577   2.211
  103POPS     P11277   2.235   4.643   2.283
  103POPS   O1311278   2.193   4.548   2.177
  103POPS   O1411279   2.286   4.777   2.246
  103POPS   O1211280   2.358   4.572   2.356
  103POPS   O1111281   2.130   4.647   2.406
  103POPS    C111282   2.164   4.575   2.528
  103POPS    HA11283   2.244   4.627   2.584
  103POPS    HB11284   2.204   4.474   2.499
  103POPS    C211285   2.049   4.537   2.631
  103POPS    HS11286   1.954   4.526   2.573
  103POPS   O2111287   2.035   4.628   2.744
  103POPS   C2111288   1.926   4.704   2.763
  103POPS   O2211289   1.838   4.717   2.680
  103POPS   C2211290   1.928   4.765   2.907
  103POPS   H2R11291   1.937   4.680   2.975
  103POPS   H2S11292   1.828   4.807   2.928
  103POPS    C311293   2.089   4.396   2.691
  103POPS    HX11294   2.106   4.324   2.608
  103POPS    HY11295   2.002   4.358   2.750
  103POPS   O3111296   2.204   4.406   2.779
  103POPS   C3111297   2.302   4.315   2.778
  103POPS   O3211298   2.312   4.220   2.704
  103POPS   C3211299   2.411   4.363   2.877
  103POPS   H2X11300   2.364   4.407   2.966
  103POPS   H2Y11301   2.470   4.439   2.824
  103POPS   C2311302   2.038   4.875   2.937
  103POPS   H3R11303   2.010   4.970   2.888
  103POPS   H3S11304   2.133   4.845   2.890
  103POPS   C2411305   2.066   4.905   3.087
  103POPS   H4R11306   2.074   4.810   3.142
  103POPS   H4S11307   1.975   4.954   3.126
  103POPS   C2511308   2.191   4.993   3.119
  103POPS   H5R11309   2.159   5.080   3.181
  103POPS   H5S11310   2.229   5.038   3.024
  103POPS   C2611311   2.306   4.921   3.198
  103POPS   H6R11312   2.322   4.817   3.172
  103POPS   H6S11313   2.274   4.913   3.303
  103POPS   C2711314   2.448   4.979   3.180
  103POPS   H7R11315   2.455   5.067   3.247
  103POPS   H7S11316   2.461   5.017   3.077
  103POPS   C2811317   2.566   4.881   3.216
  103POPS   H8R11318   2.558   4.865   3.326
  103POPS   H8S11319   2.659   4.938   3.201
  103POPS   C2911320   2.597   4.750   3.148
  103POPS   H9111321   2.632   4.758   3.044
  103POPS  C21011322   2.593   4.627   3.204
  103POPS  H10111323   2.618   4.540   3.141
  103POPS  C21111324   2.556   4.591   3.346
  103POPS  H11R11325   2.528   4.484   3.350
  103POPS  H11S11326   2.465   4.648   3.378
  103POPS  C21211327   2.669   4.614   3.450
  103POPS  H12R11328   2.687   4.724   3.458
  103POPS  H12S11329   2.763   4.567   3.413
  103POPS  C21311330   2.637   4.556   3.589
  103POPS  H13R11331   2.626   4.446   3.582
  103POPS  H13S11332   2.538   4.597   3.621
  103POPS  C21411333   2.741   4.590   3.697
  103POPS  H14R11334   2.763   4.699   3.690
  103POPS  H14S11335   2.836   4.536   3.678
  103POPS  C21511336   2.693   4.561   3.841
  103POPS  H15R11337   2.688   4.451   3.860
  103POPS  H15S11338   2.589   4.599   3.850
  103POPS  C21611339   2.780   4.630   3.949
  103POPS  H16R11340   2.812   4.728   3.910
  103POPS  H16S11341   2.872   4.571   3.967
  103POPS  C21711342   2.706   4.653   4.083
  103POPS  H17R11343   2.692   4.553   4.129
  103POPS  H17S11344   2.606   4.696   4.065
  103POPS  C21811345   2.777   4.743   4.184
  103POPS  H18R11346   2.736   4.725   4.286
  103POPS  H18S11347   2.759   4.849   4.162
  103POPS  H18T11348   2.886   4.725   4.185
  103POPS   C3311349   2.516   4.266   2.931
  103POPS   H3X11350   2.591   4.330   2.983
  103POPS   H3Y11351   2.565   4.214   2.846
  103POPS   C3411352   2.462   4.168   3.035
  103POPS   H4X11353   2.540   4.089   3.048
  103POPS   H4Y11354   2.370   4.119   2.996
  103POPS   C3511355   2.434   4.228   3.174
  103POPS   H5X11356   2.356   4.306   3.169
  103POPS   H5Y11357   2.527   4.277   3.211
  103POPS   C3611358   2.392   4.118   3.272
  103POPS   H6X11359   2.472   4.041   3.269
  103POPS   H6Y11360   2.299   4.069   3.236
  103POPS   C3711361   2.377   4.163   3.418
  103POPS   H7X11362   2.456   4.238   3.440
  103POPS   H7Y11363   2.393   4.073   3.481
  103POPS   C3811364   2.239   4.221   3.452
  103POPS   H8X11365   2.162   4.145   3.434
  103POPS   H8Y11366   2.219   4.300   3.377
  103POPS   C3911367   2.223   4.277   3.596
  103POPS   H9X11368   2.114   4.287   3.617
  103POPS   H9Y11369   2.268   4.379   3.601
  103POPS  C31011370   2.286   4.191   3.708
  103POPS  H10X11371   2.391   4.228   3.720
  103POPS  H10Y11372   2.292   4.085   3.676
  103POPS  C31111373   2.216   4.193   3.846
  103POPS  H11X11374   2.114   4.151   3.839
  103POPS  H11Y11375   2.207   4.299   3.880
  103POPS  C31211376   2.298   4.114   3.951
  103POPS  H12X11377   2.401   4.147   3.929
  103POPS  H12Y11378   2.295   4.004   3.937
  103POPS  C31311379   2.290   4.158   4.097
  103POPS  H13X11380   2.251   4.262   4.102
  103POPS  H13Y11381   2.396   4.158   4.132
  103POPS  C31411382   2.218   4.076   4.203
  103POPS  H14X11383   2.259   3.972   4.204
  103POPS  H14Y11384   2.109   4.070   4.180
  103POPS  C31511385   2.242   4.147   4.338
  103POPS  H15X11386   2.252   4.255   4.318
  103POPS  H15Y11387   2.340   4.117   4.380
  103POPS  C31611388   2.132   4.135   4.442
  103POPS  H16X11389   2.099   4.030   4.457
  103POPS  H16Y11390   2.046   4.193   4.407
  103POPS  H16Z11391   2.163   4.179   4.540
  104POPS     N11392   5.421   4.688   2.179
  104POPS   HN111393   5.438   4.746   2.263
  104POPS   HN211394   5.460   4.731   2.091
  104POPS   HN311395   5.318   4.678   2.161
  104POPS   C1211396   5.469   4.547   2.191
  104POPS  H12A11397   5.569   4.540   2.150
  104POPS   C1311398   5.377   4.454   2.108
  104POPS  O13A11399   5.276   4.507   2.053
  104POPS  O13B11400   5.402   4.332   2.096
  104POPS   C1111401   5.470   4.513   2.344
  104POPS  H11A11402   5.368   4.531   2.386
  104POPS  H11B11403   5.541   4.584   2.393
  104POPS     P11404   5.465   4.297   2.495
  104POPS   O1311405   5.519   4.160   2.480
  104POPS   O1411406   5.319   4.316   2.513
  104POPS   O1211407   5.518   4.382   2.372
  104POPS   O1111408   5.535   4.371   2.615
  104POPS    C111409   5.677   4.385   2.620
  104POPS    HA11410   5.713   4.446   2.534
  104POPS    HB11411   5.726   4.285   2.611
  104POPS    C211412   5.722   4.456   2.752
  104POPS    HS11413   5.833   4.448   2.756
  104POPS   O2111414   5.665   4.400   2.872
  104POPS   C2111415   5.690   4.270   2.887
  104POPS   O2211416   5.778   4.211   2.827
  104POPS   C2211417   5.607   4.207   2.999
  104POPS   H2R11418   5.503   4.244   2.992
  104POPS   H2S11419   5.651   4.241   3.095
  104POPS    C311420   5.687   4.607   2.747
  104POPS    HX11421   5.701   4.641   2.642
  104POPS    HY11422   5.760   4.662   2.811
  104POPS   O3111423   5.555   4.631   2.798
  104POPS   C3111424   5.458   4.644   2.709
  104POPS   O3211425   5.471   4.686   2.595
  104POPS   C3211426   5.324   4.603   2.772
  104POPS   H2X11427   5.300   4.502   2.732
  104POPS   H2Y11428   5.247   4.674   2.737
  104POPS   C2311429   5.610   4.052   2.991
  104POPS   H3R11430   5.715   4.015   2.991
  104POPS   H3S11431   5.562   4.021   2.895
  104POPS   C2411432   5.534   3.982   3.105
  104POPS   H4R11433   5.527   3.873   3.082
  104POPS   H4S11434   5.430   4.022   3.106
  104POPS   C2511435   5.595   3.997   3.246
  104POPS   H5R11436   5.615   4.105   3.266
  104POPS   H5S11437   5.692   3.944   3.253
  104POPS   C2611438   5.499   3.943   3.354
  104POPS   H6R11439   5.504   3.832   3.350
  104POPS   H6S11440   5.394   3.970   3.328
  104POPS   C2711441   5.530   3.987   3.497
  104POPS   H7R11442   5.638   3.969   3.518
  104POPS   H7S11443   5.473   3.921   3.566
  104POPS   C2811444   5.495   4.133   3.535
  104POPS   H8R11445   5.590   4.184   3.564
  104POPS   H8S11446   5.437   4.126   3.630
  104POPS   C2911447   5.416   4.218   3.437
  104POPS   H9111448   5.321   4.174   3.402
  104POPS  C21011449   5.453   4.339   3.390
  104POPS  H10111450   5.387   4.391   3.319
  104POPS  C21111451   5.580   4.410   3.429
  104POPS  H11R11452   5.663   4.354   3.381
  104POPS  H11S11453   5.597   4.403   3.539
  104POPS  C21211454   5.602   4.558   3.386
  104POPS  H12R11455   5.579   4.568   3.278
  104POPS  H12S11456   5.710   4.579   3.399
  104POPS  C21311457   5.526   4.668   3.463
  104POPS  H13R11458   5.421   4.669   3.430
  104POPS  H13S11459   5.568   4.766   3.433
  104POPS  C21411460   5.527   4.660   3.616
  104POPS  H14R11461   5.482   4.564   3.650
  104POPS  H14S11462   5.460   4.741   3.654
  104POPS  C21511463   5.666   4.679   3.677
  104POPS  H15R11464   5.719   4.761   3.624
  104POPS  H15S11465   5.724   4.585   3.662
  104POPS  C21611466   5.664   4.715   3.827
  104POPS  H16R11467   5.636   4.822   3.838
  104POPS  H16S11468   5.767   4.700   3.864
  104POPS  C21711469   5.571   4.631   3.915
  104POPS  H17R11470   5.470   4.621   3.869
  104POPS  H17S11471   5.557   4.683   4.012
  104POPS  C21811472   5.630   4.493   3.942
  104POPS  H18R11473   5.658   4.442   3.848
  104POPS  H18S11474   5.557   4.432   3.998
  104POPS  H18T11475   5.720   4.502   4.004
  104POPS   C3311476   5.326   4.599   2.926
  104POPS   H3X11477   5.335   4.703   2.965
  104POPS   H3Y11478   5.414   4.541   2.963
  104POPS   C3411479   5.201   4.532   2.984
  104POPS   H4X11480   5.202   4.425   2.953
  104POPS   H4Y11481   5.108   4.577   2.943
  104POPS   C3511482   5.200   4.537   3.137
  104POPS   H5X11483   5.302   4.511   3.172
  104POPS   H5Y11484   5.130   4.460   3.176
  104POPS   C3611485   5.162   4.673   3.197
  104POPS   H6X11486   5.063   4.708   3.163
  104POPS   H6Y11487   5.238   4.749   3.166
  104POPS   C3711488   5.166   4.662   3.350
  104POPS   H7X11489   5.185   4.761   3.397
  104POPS   H7Y11490   5.254   4.597   3.371
  104POPS   C3811491   5.046   4.594   3.416
  104POPS   H8X11492   5.029   4.494   3.370
  104POPS   H8Y11493   4.954   4.653   3.398
  104POPS   C3911494   5.068   4.576   3.567
  104POPS   H9X11495   4.972   4.543   3.614
  104POPS   H9Y11496   5.098   4.673   3.612
  104POPS  C31011497   5.175   4.470   3.595
  104POPS  H10X11498   5.272   4.502   3.552
  104POPS  H10Y11499   5.146   4.375   3.544
  104POPS  C31111500   5.199   4.440   3.743
  104POPS  H11X11501   5.105   4.407   3.792
  104POPS  H11Y11502   5.237   4.531   3.794
  104POPS  C31211503   5.304   4.329   3.753
  104POPS  H12X11504   5.401   4.369   3.714
  104POPS  H12Y11505   5.274   4.245   3.687
  104POPS  C31311506   5.328   4.273   3.894
  104POPS  H13X11507   5.246   4.204   3.922
  104POPS  H13Y11508   5.327   4.358   3.966
  104POPS  C31411509   5.464   4.203   3.903
  104POPS  H14X11510   5.541   4.263   3.850
  104POPS  H14Y11511   5.460   4.105   3.850
  104POPS  C31511512   5.506   4.182   4.048
  104POPS  H15X11513   5.482   4.271   4.108
  104POPS  H15Y11514   5.616   4.165   4.056
  104POPS  C31611515   5.434   4.063   4.106
  104POPS  H16X11516   5.474   4.037   4.204
  104POPS  H16Y11517   5.449   3.975   4.041
  104POPS  H16Z11518   5.325   4.085   4.114
  105POPS     N11519   3.585   2.029   2.432
  105POPS   HN111520   3.532   2.066   2.352
  105POPS   HN211521   3.570   1.927   2.440
  105POPS   HN311522   3.566   2.081   2.520
  105POPS   C1211523   3.727   2.052   2.395
  105POPS  H12A11524   3.782   2.027   2.482
  105POPS   C1311525   3.763   2.201   2.378
  105POPS  O13A11526   3.688   2.288   2.429
  105POPS  O13B11527   3.871   2.228   2.319
  105POPS   C1111528   3.773   1.953   2.282
  105POPS  H11A11529   3.873   1.914   2.311
  105POPS  H11B11530   3.791   2.010   2.189
  105POPS     P11531   3.704   1.695   2.270
  105POPS   O1311532   3.828   1.657   2.198
  105POPS   O1411533   3.582   1.619   2.236
  105POPS   O1211534   3.678   1.849   2.255
  105POPS   O1111535   3.720   1.684   2.425
  105POPS    C111536   3.808   1.590   2.483
  105POPS    HA11537   3.889   1.559   2.413
  105POPS    HB11538   3.754   1.498   2.511
  105POPS    C211539   3.881   1.658   2.601
  105POPS    HS11540   3.971   1.598   2.618
  105POPS   O2111541   3.805   1.662   2.720
  105POPS   C2111542   3.753   1.551   2.762
  105POPS   O2211543   3.794   1.438   2.737
  105POPS   C2211544   3.627   1.586   2.842
  105POPS   H2R11545   3.638   1.531   2.937
  105POPS   H2S11546   3.539   1.549   2.786
  105POPS    C311547   3.913   1.806   2.571
  105POPS    HX11548   3.813   1.853   2.559
  105POPS    HY11549   3.969   1.814   2.475
  105POPS   O3111550   3.989   1.867   2.677
  105POPS   C3111551   3.942   1.978   2.735
  105POPS   O3211552   3.850   2.045   2.693
  105POPS   C3211553   4.028   2.006   2.858
  105POPS   H2X11554   4.111   2.068   2.821
  105POPS   H2Y11555   4.068   1.910   2.896
  105POPS   C2311556   3.611   1.736   2.878
  105POPS   H3R11557   3.706   1.771   2.925
  105POPS   H3S11558   3.531   1.745   2.956
  105POPS   C2411559   3.574   1.831   2.762
  105POPS   H4R11560   3.470   1.813   2.729
  105POPS   H4S11561   3.639   1.812   2.675
  105POPS   C2511562   3.593   1.978   2.802
  105POPS   H5R11563   3.622   2.041   2.715
  105POPS   H5S11564   3.676   1.985   2.875
  105POPS   C2611565   3.466   2.038   2.860
  105POPS   H6R11566   3.408   1.953   2.901
  105POPS   H6S11567   3.413   2.082   2.773
  105POPS   C2711568   3.480   2.147   2.967
  105POPS   H7R11569   3.382   2.199   2.979
  105POPS   H7S11570   3.554   2.221   2.931
  105POPS   C2811571   3.517   2.093   3.106
  105POPS   H8R11572   3.598   2.018   3.091
  105POPS   H8S11573   3.434   2.039   3.156
  105POPS   C2911574   3.566   2.206   3.189
  105POPS   H9111575   3.631   2.277   3.135
  105POPS  C21011576   3.548   2.226   3.320
  105POPS  H10111577   3.607   2.308   3.367
  105POPS  C21111578   3.474   2.142   3.420
  105POPS  H11R11579   3.516   2.040   3.428
  105POPS  H11S11580   3.366   2.134   3.395
  105POPS  C21211581   3.493   2.216   3.553
  105POPS  H12R11582   3.442   2.315   3.548
  105POPS  H12S11583   3.601   2.233   3.573
  105POPS  C21311584   3.438   2.144   3.676
  105POPS  H13R11585   3.478   2.040   3.676
  105POPS  H13S11586   3.327   2.139   3.669
  105POPS  C21411587   3.481   2.213   3.806
  105POPS  H14R11588   3.391   2.226   3.870
  105POPS  H14S11589   3.519   2.315   3.782
  105POPS  C21511590   3.587   2.136   3.885
  105POPS  H15R11591   3.541   2.041   3.921
  105POPS  H15S11592   3.616   2.195   3.975
  105POPS  C21611593   3.715   2.099   3.807
  105POPS  H16R11594   3.780   2.189   3.799
  105POPS  H16S11595   3.689   2.068   3.703
  105POPS  C21711596   3.793   1.983   3.870
  105POPS  H17R11597   3.884   1.965   3.809
  105POPS  H17S11598   3.729   1.892   3.863
  105POPS  C21811599   3.832   2.003   4.017
  105POPS  H18R11600   3.742   2.017   4.081
  105POPS  H18S11601   3.896   2.094   4.028
  105POPS  H18T11602   3.889   1.915   4.054
  105POPS   C3311603   3.963   2.083   2.977
  105POPS   H3X11604   3.901   2.168   2.942
  105POPS   H3Y11605   4.047   2.126   3.036
  105POPS   C3411606   3.886   1.994   3.076
  105POPS   H4X11607   3.943   1.901   3.095
  105POPS   H4Y11608   3.789   1.963   3.033
  105POPS   C3511609   3.860   2.068   3.209
  105POPS   H5X11610   3.810   2.163   3.184
  105POPS   H5Y11611   3.955   2.103   3.252
  105POPS   C3611612   3.779   1.991   3.316
  105POPS   H6X11613   3.674   1.987   3.283
  105POPS   H6Y11614   3.782   2.049   3.411
  105POPS   C3711615   3.811   1.843   3.345
  105POPS   H7X11616   3.911   1.830   3.390
  105POPS   H7Y11617   3.807   1.786   3.250
  105POPS   C3811618   3.704   1.786   3.440
  105POPS   H8X11619   3.604   1.815   3.403
  105POPS   H8Y11620   3.717   1.831   3.541
  105POPS   C3911621   3.707   1.633   3.451
  105POPS   H9X11622   3.799   1.605   3.507
  105POPS   H9Y11623   3.713   1.588   3.350
  105POPS  C31011624   3.580   1.581   3.520
  105POPS  H10X11625   3.496   1.605   3.454
  105POPS  H10Y11626   3.565   1.634   3.617
  105POPS  C31111627   3.573   1.429   3.542
  105POPS  H11X11628   3.544   1.383   3.447
  105POPS  H11Y11629   3.494   1.406   3.617
  105POPS  C31211630   3.706   1.369   3.587
  105POPS  H12X11631   3.783   1.387   3.510
  105POPS  H12Y11632   3.699   1.260   3.602
  105POPS  C31311633   3.746   1.430   3.719
  105POPS  H13X11634   3.691   1.381   3.803
  105POPS  H13Y11635   3.716   1.537   3.722
  105POPS  C31411636   3.895   1.428   3.741
  105POPS  H14X11637   3.950   1.468   3.653
  105POPS  H14Y11638   3.937   1.327   3.760
  105POPS  C31511639   3.913   1.517   3.861
  105POPS  H15X11640   4.004   1.486   3.915
  105POPS  H15Y11641   3.826   1.507   3.931
  105POPS  C31611642   3.927   1.660   3.817
  105POPS  H16X11643   3.982   1.713   3.897
  105POPS  H16Y11644   3.833   1.714   3.795
  105POPS  H16Z11645   3.984   1.660   3.721
  106POPS     N11646   5.257   5.836   2.078
  106POPS   HN111647   5.250   5.736   2.102
  106POPS   HN211648   5.231   5.856   1.978
  106POPS   HN311649   5.357   5.864   2.097
  106POPS   C1211650   5.170   5.915   2.170
  106POPS  H12A11651   5.074   5.866   2.176
  106POPS   C1311652   5.148   6.061   2.126
  106POPS  O13A11653   5.234   6.115   2.050
  106POPS  O13B11654   5.044   6.120   2.165
  106POPS   C1111655   5.238   5.912   2.310
  106POPS  H11A11656   5.163   5.951   2.384
  106POPS  H11B11657   5.323   5.985   2.311
  106POPS     P11658   5.236   5.697   2.463
  106POPS   O1311659   5.217   5.557   2.419
  106POPS   O1411660   5.118   5.765   2.519
  106POPS   O1211661   5.288   5.781   2.339
  106POPS   O1111662   5.357   5.703   2.567
  106POPS    C111663   5.444   5.816   2.551
  106POPS    HA11664   5.383   5.908   2.547
  106POPS    HB11665   5.502   5.808   2.456
  106POPS    C211666   5.550   5.834   2.664
  106POPS    HS11667   5.630   5.758   2.651
  106POPS   O2111668   5.483   5.826   2.794
  106POPS   C2111669   5.531   5.726   2.870
  106POPS   O2211670   5.640   5.677   2.855
  106POPS   C2211671   5.433   5.678   2.978
  106POPS   H2R11672   5.349   5.625   2.927
  106POPS   H2S11673   5.390   5.766   3.029
  106POPS    C311674   5.621   5.970   2.638
  106POPS    HX11675   5.689   5.953   2.551
  106POPS    HY11676   5.688   5.999   2.721
  106POPS   O3111677   5.525   6.069   2.601
  106POPS   C3111678   5.476   6.140   2.702
  106POPS   O3211679   5.539   6.175   2.799
  106POPS   C3211680   5.326   6.161   2.679
  106POPS   H2X11681   5.287   6.089   2.604
  106POPS   H2Y11682   5.315   6.263   2.638
  106POPS   C2311683   5.500   5.579   3.082
  106POPS   H3R11684   5.597   5.617   3.118
  106POPS   H3S11685   5.532   5.486   3.029
  106POPS   C2411686   5.410   5.542   3.202
  106POPS   H4R11687   5.370   5.439   3.187
  106POPS   H4S11688   5.322   5.610   3.196
  106POPS   C2511689   5.470   5.554   3.345
  106POPS   H5R11690   5.564   5.612   3.340
  106POPS   H5S11691   5.498   5.453   3.384
  106POPS   C2611692   5.371   5.624   3.442
  106POPS   H6R11693   5.294   5.551   3.473
  106POPS   H6S11694   5.321   5.703   3.382
  106POPS   C2711695   5.428   5.696   3.566
  106POPS   H7R11696   5.537   5.674   3.569
  106POPS   H7S11697   5.385   5.653   3.659
  106POPS   C2811698   5.416   5.853   3.576
  106POPS   H8R11699   5.478   5.895   3.497
  106POPS   H8S11700   5.465   5.879   3.673
  106POPS   C2911701   5.296   5.940   3.555
  106POPS   H9111702   5.211   5.898   3.500
  106POPS  C21011703   5.290   6.067   3.599
  106POPS  H10111704   5.198   6.125   3.583
  106POPS  C21111705   5.400   6.138   3.675
  106POPS  H11R11706   5.402   6.246   3.646
  106POPS  H11S11707   5.501   6.099   3.649
  106POPS  C21211708   5.373   6.120   3.826
  106POPS  H12R11709   5.343   6.015   3.847
  106POPS  H12S11710   5.286   6.185   3.853
  106POPS  C21311711   5.491   6.153   3.920
  106POPS  H13R11712   5.452   6.188   4.018
  106POPS  H13S11713   5.547   6.240   3.876
  106POPS  C21411714   5.590   6.038   3.945
  106POPS  H14R11715   5.667   6.073   4.016
  106POPS  H14S11716   5.640   6.019   3.847
  106POPS  C21511717   5.542   5.900   3.998
  106POPS  H15R11718   5.619   5.829   3.959
  106POPS  H15S11719   5.447   5.870   3.951
  106POPS  C21611720   5.531   5.879   4.152
  106POPS  H16R11721   5.455   5.953   4.184
  106POPS  H16S11722   5.621   5.910   4.207
  106POPS  C21711723   5.480   5.736   4.192
  106POPS  H17R11724   5.452   5.679   4.102
  106POPS  H17S11725   5.385   5.755   4.238
  106POPS  C21811726   5.536   5.644   4.302
  106POPS  H18R11727   5.452   5.579   4.338
  106POPS  H18S11728   5.572   5.698   4.391
  106POPS  H18T11729   5.611   5.573   4.266
  106POPS   C3311730   5.248   6.148   2.811
  106POPS   H3X11731   5.157   6.212   2.804
  106POPS   H3Y11732   5.308   6.185   2.896
  106POPS   C3411733   5.201   6.008   2.850
  106POPS   H4X11734   5.288   5.939   2.854
  106POPS   H4Y11735   5.130   5.968   2.774
  106POPS   C3511736   5.137   6.015   2.989
  106POPS   H5X11737   5.053   6.086   2.988
  106POPS   H5Y11738   5.212   6.056   3.061
  106POPS   C3611739   5.090   5.879   3.039
  106POPS   H6X11740   5.158   5.800   2.999
  106POPS   H6Y11741   4.989   5.858   2.998
  106POPS   C3711742   5.090   5.870   3.192
  106POPS   H7X11743   5.031   5.954   3.235
  106POPS   H7Y11744   5.195   5.880   3.229
  106POPS   C3811745   5.032   5.736   3.237
  106POPS   H8X11746   5.094   5.656   3.191
  106POPS   H8Y11747   4.928   5.725   3.198
  106POPS   C3911748   5.033   5.713   3.388
  106POPS   H9X11749   5.137   5.717   3.423
  106POPS   H9Y11750   4.997   5.610   3.406
  106POPS  C31011751   4.954   5.807   3.478
  106POPS  H10X11752   4.853   5.819   3.436
  106POPS  H10Y11753   5.000   5.908   3.480
  106POPS  C31111754   4.948   5.748   3.620
  106POPS  H11X11755   4.892   5.652   3.616
  106POPS  H11Y11756   4.892   5.816   3.688
  106POPS  C31211757   5.085   5.716   3.682
  106POPS  H12X11758   5.144   5.810   3.691
  106POPS  H12Y11759   5.141   5.643   3.620
  106POPS  C31311760   5.076   5.663   3.825
  106POPS  H13X11761   4.994   5.588   3.826
  106POPS  H13Y11762   5.048   5.748   3.890
  106POPS  C31411763   5.206   5.600   3.878
  106POPS  H14X11764   5.280   5.680   3.896
  106POPS  H14Y11765   5.250   5.532   3.802
  106POPS  C31511766   5.184   5.519   4.008
  106POPS  H15X11767   5.264   5.546   4.080
  106POPS  H15Y11768   5.198   5.411   3.985
  106POPS  C31611769   5.046   5.537   4.073
  106POPS  H16X11770   5.049   5.512   4.181
  106POPS  H16Y11771   4.972   5.471   4.024
  106POPS  H16Z11772   5.010   5.641   4.066
  107POPS     N11773   6.551   4.039   2.404
  107POPS   HN111774   6.463   4.047   2.350
  107POPS   HN211775   6.544   3.951   2.463
  107POPS   HN311776   6.575   4.120   2.465
  107POPS   C1211777   6.666   3.995   2.319
  107POPS  H12A11778   6.659   4.033   2.218
  107POPS   C1311779   6.657   3.841   2.313
  107POPS  O13A11780   6.589   3.785   2.404
  107POPS  O13B11781   6.704   3.778   2.215
  107POPS   C1111782   6.787   4.053   2.395
  107POPS  H11A11783   6.772   4.048   2.505
  107POPS  H11B11784   6.790   4.163   2.372
  107POPS     P11785   7.020   4.059   2.281
  107POPS   O1311786   6.964   4.082   2.146
  107POPS   O1411787   7.149   3.987   2.289
  107POPS   O1211788   6.910   3.987   2.367
  107POPS   O1111789   7.029   4.201   2.351
  107POPS    C111790   7.130   4.231   2.448
  107POPS    HA11791   7.181   4.325   2.418
  107POPS    HB11792   7.212   4.154   2.455
  107POPS    C211793   7.065   4.256   2.585
  107POPS    HS11794   7.140   4.301   2.654
  107POPS   O2111795   7.009   4.138   2.644
  107POPS   C2111796   7.095   4.051   2.690
  107POPS   O2211797   7.216   4.062   2.691
  107POPS   C2211798   7.018   3.935   2.754
  107POPS   H2R11799   7.025   3.949   2.864
  107POPS   H2S11800   7.074   3.843   2.727
  107POPS    C311801   6.946   4.353   2.570
  107POPS    HX11802   6.873   4.307   2.502
  107POPS    HY11803   6.982   4.446   2.521
  107POPS   O3111804   6.893   4.383   2.700
  107POPS   C3111805   6.777   4.330   2.733
  107POPS   O3211806   6.697   4.277   2.656
  107POPS   C3211807   6.763   4.349   2.885
  107POPS   H2X11808   6.793   4.453   2.908
  107POPS   H2Y11809   6.835   4.280   2.934
  107POPS   C2311810   6.870   3.925   2.707
  107POPS   H3R11811   6.874   3.904   2.598
  107POPS   H3S11812   6.816   4.020   2.727
  107POPS   C2411813   6.795   3.809   2.770
  107POPS   H4R11814   6.821   3.802   2.876
  107POPS   H4S11815   6.836   3.722   2.712
  107POPS   C2511816   6.643   3.791   2.751
  107POPS   H5R11817   6.626   3.680   2.758
  107POPS   H5S11818   6.616   3.819   2.648
  107POPS   C2611819   6.549   3.857   2.854
  107POPS   H6R11820   6.446   3.839   2.817
  107POPS   H6S11821   6.566   3.966   2.855
  107POPS   C2711822   6.558   3.800   2.998
  107POPS   H7R11823   6.664   3.805   3.030
  107POPS   H7S11824   6.528   3.693   2.997
  107POPS   C2811825   6.475   3.876   3.104
  107POPS   H8R11826   6.368   3.870   3.079
  107POPS   H8S11827   6.502   3.983   3.097
  107POPS   C2911828   6.494   3.826   3.246
  107POPS   H9111829   6.419   3.753   3.279
  107POPS  C21011830   6.591   3.862   3.334
  107POPS  H10111831   6.583   3.826   3.437
  107POPS  C21111832   6.704   3.959   3.313
  107POPS  H11R11833   6.688   4.039   3.387
  107POPS  H11S11834   6.693   4.002   3.212
  107POPS  C21211835   6.855   3.927   3.321
  107POPS  H12R11836   6.909   4.020   3.290
  107POPS  H12S11837   6.878   3.850   3.244
  107POPS  C21311838   6.912   3.885   3.458
  107POPS  H13R11839   7.020   3.861   3.449
  107POPS  H13S11840   6.860   3.792   3.487
  107POPS  C21411841   6.889   3.977   3.579
  107POPS  H14R11842   6.821   4.059   3.552
  107POPS  H14S11843   6.985   4.022   3.609
  107POPS  C21511844   6.830   3.894   3.696
  107POPS  H15R11845   6.888   3.799   3.700
  107POPS  H15S11846   6.725   3.866   3.672
  107POPS  C21611847   6.837   3.956   3.836
  107POPS  H16R11848   6.741   4.009   3.858
  107POPS  H16S11849   6.918   4.032   3.838
  107POPS  C21711850   6.864   3.849   3.943
  107POPS  H17R11851   6.967   3.811   3.925
  107POPS  H17S11852   6.793   3.764   3.928
  107POPS  C21811853   6.854   3.896   4.088
  107POPS  H18R11854   6.763   3.856   4.139
  107POPS  H18S11855   6.852   4.006   4.092
  107POPS  H18T11856   6.943   3.862   4.146
  107POPS   C3311857   6.622   4.326   2.941
  107POPS   H3X11858   6.588   4.221   2.924
  107POPS   H3Y11859   6.551   4.392   2.886
  107POPS   C3411860   6.614   4.361   3.091
  107POPS   H4X11861   6.508   4.388   3.109
  107POPS   H4Y11862   6.679   4.447   3.116
  107POPS   C3511863   6.635   4.244   3.186
  107POPS   H5X11864   6.742   4.226   3.209
  107POPS   H5Y11865   6.599   4.157   3.126
  107POPS   C3611866   6.545   4.245   3.312
  107POPS   H6X11867   6.503   4.142   3.319
  107POPS   H6Y11868   6.456   4.309   3.298
  107POPS   C3711869   6.611   4.274   3.449
  107POPS   H7X11870   6.628   4.382   3.464
  107POPS   H7Y11871   6.711   4.227   3.454
  107POPS   C3811872   6.522   4.216   3.562
  107POPS   H8X11873   6.482   4.118   3.527
  107POPS   H8Y11874   6.435   4.283   3.576
  107POPS   C3911875   6.593   4.189   3.696
  107POPS   H9X11876   6.675   4.117   3.679
  107POPS   H9Y11877   6.520   4.139   3.764
  107POPS  C31011878   6.646   4.314   3.766
  107POPS  H10X11879   6.557   4.374   3.793
  107POPS  H10Y11880   6.711   4.373   3.697
  107POPS  C31111881   6.718   4.291   3.899
  107POPS  H11X11882   6.818   4.244   3.883
  107POPS  H11Y11883   6.658   4.220   3.960
  107POPS  C31211884   6.733   4.423   3.977
  107POPS  H12X11885   6.643   4.486   3.963
  107POPS  H12Y11886   6.820   4.478   3.935
  107POPS  C31311887   6.755   4.402   4.128
  107POPS  H13X11888   6.799   4.493   4.173
  107POPS  H13Y11889   6.829   4.321   4.138
  107POPS  C31411890   6.626   4.366   4.205
  107POPS  H14X11891   6.551   4.325   4.134
  107POPS  H14Y11892   6.583   4.460   4.248
  107POPS  C31511893   6.642   4.263   4.319
  107POPS  H15X11894   6.542   4.249   4.366
  107POPS  H15Y11895   6.711   4.304   4.396
  107POPS  C31611896   6.691   4.126   4.275
  107POPS  H16X11897   6.795   4.133   4.240
  107POPS  H16Y11898   6.630   4.085   4.191
  107POPS  H16Z11899   6.691   4.053   4.358
  108POPS     N11900   1.240   2.875   2.478
  108POPS   HN111901   1.315   2.915   2.417
  108POPS   HN211902   1.171   2.947   2.504
  108POPS   HN311903   1.283   2.826   2.559
  108POPS   C1211904   1.170   2.772   2.395
  108POPS  H12A11905   1.116   2.705   2.460
  108POPS   C1311906   1.265   2.687   2.312
  108POPS  O13A11907   1.390   2.706   2.323
  108POPS  O13B11908   1.213   2.601   2.236
  108POPS   C1111909   1.069   2.841   2.301
  108POPS  H11A11910   1.021   2.760   2.240
  108POPS  H11B11911   1.120   2.911   2.231
  108POPS     P11912   0.832   2.944   2.321
  108POPS   O1311913   0.792   2.838   2.228
  108POPS   O1411914   0.845   3.082   2.271
  108POPS   O1211915   0.974   2.910   2.382
  108POPS   O1111916   0.748   2.939   2.455
  108POPS    C111917   0.794   2.984   2.581
  108POPS    HA11918   0.711   3.038   2.631
  108POPS    HB11919   0.876   3.059   2.570
  108POPS    C211920   0.847   2.870   2.675
  108POPS    HS11921   0.929   2.822   2.618
  108POPS   O2111922   0.748   2.770   2.712
  108POPS   C2111923   0.809   2.659   2.764
  108POPS   O2211924   0.930   2.653   2.781
  108POPS   C2211925   0.712   2.540   2.783
  108POPS   H2R11926   0.749   2.461   2.714
  108POPS   H2S11927   0.611   2.569   2.752
  108POPS    C311928   0.904   2.937   2.803
  108POPS    HX11929   1.011   2.963   2.784
  108POPS    HY11930   0.902   2.860   2.883
  108POPS   O3111931   0.832   3.057   2.841
  108POPS   C3111932   0.820   3.075   2.972
  108POPS   O3211933   0.861   2.999   3.057
  108POPS   C3211934   0.750   3.207   3.001
  108POPS   H2X11935   0.658   3.210   2.939
  108POPS   H2Y11936   0.818   3.289   2.973
  108POPS   C2311937   0.703   2.477   2.926
  108POPS   H3R11938   0.804   2.476   2.972
  108POPS   H3S11939   0.668   2.371   2.918
  108POPS   C2411940   0.599   2.555   3.009
  108POPS   H4R11941   0.496   2.528   2.977
  108POPS   H4S11942   0.615   2.659   2.978
  108POPS   C2511943   0.608   2.552   3.163
  108POPS   H5R11944   0.580   2.449   3.198
  108POPS   H5S11945   0.532   2.622   3.205
  108POPS   C2611946   0.746   2.588   3.217
  108POPS   H6R11947   0.812   2.502   3.188
  108POPS   H6S11948   0.746   2.591   3.328
  108POPS   C2711949   0.813   2.717   3.164
  108POPS   H7R11950   0.786   2.804   3.228
  108POPS   H7S11951   0.783   2.740   3.060
  108POPS   C2811952   0.965   2.694   3.163
  108POPS   H8R11953   0.980   2.603   3.101
  108POPS   H8S11954   0.986   2.669   3.270
  108POPS   C2911955   1.065   2.796   3.114
  108POPS   H9111956   1.041   2.848   3.021
  108POPS  C21011957   1.185   2.813   3.170
  108POPS  H10111958   1.259   2.879   3.121
  108POPS  C21111959   1.233   2.732   3.287
  108POPS  H11R11960   1.343   2.720   3.276
  108POPS  H11S11961   1.197   2.630   3.270
  108POPS  C21211962   1.198   2.763   3.437
  108POPS  H12R11963   1.292   2.807   3.468
  108POPS  H12S11964   1.187   2.670   3.496
  108POPS  C21311965   1.090   2.866   3.474
  108POPS  H13R11966   1.126   2.969   3.454
  108POPS  H13S11967   1.005   2.847   3.405
  108POPS  C21411968   1.030   2.866   3.617
  108POPS  H14R11969   0.976   2.770   3.630
  108POPS  H14S11970   0.957   2.950   3.620
  108POPS  C21511971   1.112   2.900   3.742
  108POPS  H15R11972   1.192   2.971   3.715
  108POPS  H15S11973   1.157   2.807   3.782
  108POPS  C21611974   1.036   2.979   3.852
  108POPS  H16R11975   1.047   2.926   3.950
  108POPS  H16S11976   0.928   2.985   3.830
  108POPS  C21711977   1.091   3.122   3.868
  108POPS  H17R11978   1.073   3.177   3.772
  108POPS  H17S11979   1.201   3.117   3.884
  108POPS  C21811980   1.029   3.203   3.982
  108POPS  H18R11981   1.076   3.303   3.988
  108POPS  H18S11982   1.043   3.152   4.080
  108POPS  H18T11983   0.920   3.217   3.966
  108POPS   C3311984   0.710   3.219   3.151
  108POPS   H3X11985   0.688   3.118   3.191
  108POPS   H3Y11986   0.615   3.276   3.159
  108POPS   C3411987   0.812   3.295   3.235
  108POPS   H4X11988   0.822   3.397   3.191
  108POPS   H4Y11989   0.910   3.246   3.230
  108POPS   C3511990   0.779   3.311   3.385
  108POPS   H5X11991   0.669   3.306   3.395
  108POPS   H5Y11992   0.814   3.410   3.419
  108POPS   C3611993   0.839   3.204   3.477
  108POPS   H6X11994   0.827   3.237   3.582
  108POPS   H6Y11995   0.949   3.196   3.463
  108POPS   C3711996   0.770   3.069   3.456
  108POPS   H7X11997   0.824   2.983   3.496
  108POPS   H7Y11998   0.765   3.045   3.348
  108POPS   C3811999   0.632   3.067   3.519
  108POPS   H8X12000   0.583   2.970   3.493
  108POPS   H8Y12001   0.567   3.148   3.479
  108POPS   C3912002   0.634   3.077   3.672
  108POPS   H9X12003   0.680   3.171   3.708
  108POPS   H9Y12004   0.697   2.996   3.711
  108POPS  C31012005   0.490   3.068   3.721
  108POPS  H10X12006   0.461   2.962   3.730
  108POPS  H10Y12007   0.425   3.111   3.641
  108POPS  C31112008   0.458   3.144   3.849
  108POPS  H11X12009   0.348   3.161   3.847
  108POPS  H11Y12010   0.507   3.242   3.855
  108POPS  C31212011   0.490   3.063   3.974
  108POPS  H12X12012   0.451   2.963   3.948
  108POPS  H12Y12013   0.432   3.102   4.060
  108POPS  C31312014   0.638   3.056   4.014
  108POPS  H13X12015   0.672   3.156   4.051
  108POPS  H13Y12016   0.700   3.038   3.924
  108POPS  C31412017   0.667   2.948   4.120
  108POPS  H14X12018   0.661   2.993   4.221
  108POPS  H14Y12019   0.771   2.911   4.109
  108POPS  C31512020   0.568   2.830   4.124
  108POPS  H15X12021   0.588   2.761   4.040
  108POPS  H15Y12022   0.463   2.865   4.115
  108POPS  C31612023   0.569   2.753   4.255
  108POPS  H16X12024   0.639   2.797   4.329
  108POPS  H16Y12025   0.600   2.650   4.233
  108POPS  H16Z12026   0.467   2.750   4.299
  109POPS     N12027   5.584   6.478   2.113
  109POPS   HN112028   5.520   6.397   2.095
  109POPS   HN212029   5.524   6.563   2.112
  109POPS   HN312030   5.651   6.482   2.034
  109POPS   C1212031   5.649   6.461   2.246
  109POPS  H12A12032   5.717   6.544   2.260
  109POPS   C1312033   5.733   6.330   2.262
  109POPS  O13A12034   5.739   6.250   2.164
  109POPS  O13B12035   5.798   6.312   2.368
  109POPS   C1112036   5.536   6.476   2.353
  109POPS  H11A12037   5.582   6.471   2.455
  109POPS  H11B12038   5.465   6.391   2.343
  109POPS     P12039   5.351   6.644   2.435
  109POPS   O1312040   5.313   6.524   2.512
  109POPS   O1412041   5.244   6.711   2.357
  109POPS   O1212042   5.467   6.601   2.334
  109POPS   O1112043   5.427   6.743   2.533
  109POPS    C112044   5.452   6.879   2.499
  109POPS    HA12045   5.357   6.937   2.504
  109POPS    HB12046   5.494   6.886   2.397
  109POPS    C212047   5.554   6.948   2.596
  109POPS    HS12048   5.596   7.036   2.545
  109POPS   O2112049   5.660   6.862   2.637
  109POPS   C2112050   5.718   6.784   2.551
  109POPS   O2212051   5.744   6.807   2.434
  109POPS   C2212052   5.754   6.658   2.627
  109POPS   H2R12053   5.661   6.596   2.631
  109POPS   H2S12054   5.780   6.687   2.732
  109POPS    C312055   5.486   7.005   2.725
  109POPS    HX12056   5.431   7.093   2.689
  109POPS    HY12057   5.561   7.043   2.798
  109POPS   O3112058   5.391   6.915   2.787
  109POPS   C3112059   5.442   6.807   2.841
  109POPS   O3212060   5.558   6.796   2.878
  109POPS   C3212061   5.335   6.698   2.853
  109POPS   H2X12062   5.297   6.677   2.751
  109POPS   H2Y12063   5.252   6.736   2.915
  109POPS   C2312064   5.869   6.581   2.563
  109POPS   H3R12065   5.937   6.652   2.511
  109POPS   H3S12066   5.826   6.514   2.485
  109POPS   C2412067   5.957   6.501   2.660
  109POPS   H4R12068   6.015   6.569   2.723
  109POPS   H4S12069   6.032   6.446   2.599
  109POPS   C2512070   5.893   6.393   2.749
  109POPS   H5R12071   5.978   6.352   2.806
  109POPS   H5S12072   5.856   6.318   2.674
  109POPS   C2612073   5.774   6.415   2.846
  109POPS   H6R12074   5.723   6.317   2.856
  109POPS   H6S12075   5.699   6.480   2.799
  109POPS   C2712076   5.800   6.457   2.993
  109POPS   H7R12077   5.897   6.506   3.003
  109POPS   H7S12078   5.805   6.367   3.059
  109POPS   C2812079   5.686   6.549   3.045
  109POPS   H8R12080   5.602   6.483   3.076
  109POPS   H8S12081   5.656   6.601   2.953
  109POPS   C2912082   5.705   6.665   3.140
  109POPS   H9112083   5.784   6.734   3.110
  109POPS  C21012084   5.632   6.699   3.247
  109POPS  H10112085   5.662   6.788   3.305
  109POPS  C21112086   5.510   6.628   3.301
  109POPS  H11R12087   5.442   6.599   3.220
  109POPS  H11S12088   5.452   6.693   3.370
  109POPS  C21212089   5.557   6.504   3.379
  109POPS  H12R12090   5.620   6.441   3.311
  109POPS  H12S12091   5.473   6.440   3.411
  109POPS  C21312092   5.640   6.543   3.501
  109POPS  H13R12093   5.682   6.646   3.492
  109POPS  H13S12094   5.727   6.475   3.502
  109POPS  C21412095   5.567   6.535   3.635
  109POPS  H14R12096   5.530   6.432   3.653
  109POPS  H14S12097   5.479   6.603   3.632
  109POPS  C21512098   5.658   6.577   3.750
  109POPS  H15R12099   5.696   6.680   3.731
  109POPS  H15S12100   5.745   6.508   3.756
  109POPS  C21612101   5.582   6.576   3.882
  109POPS  H16R12102   5.551   6.471   3.905
  109POPS  H16S12103   5.490   6.635   3.864
  109POPS  C21712104   5.653   6.634   4.005
  109POPS  H17R12105   5.638   6.561   4.088
  109POPS  H17S12106   5.603   6.729   4.035
  109POPS  C21812107   5.802   6.660   3.990
  109POPS  H18R12108   5.847   6.678   4.091
  109POPS  H18S12109   5.815   6.751   3.930
  109POPS  H18T12110   5.856   6.578   3.941
  109POPS   C3312111   5.401   6.573   2.914
  109POPS   H3X12112   5.433   6.596   3.018
  109POPS   H3Y12113   5.491   6.552   2.851
  109POPS   C3412114   5.326   6.440   2.912
  109POPS   H4X12115   5.404   6.361   2.924
  109POPS   H4Y12116   5.281   6.430   2.810
  109POPS   C3512117   5.221   6.421   3.021
  109POPS   H5X12118   5.142   6.352   2.984
  109POPS   H5Y12119   5.174   6.520   3.037
  109POPS   C3612120   5.272   6.364   3.156
  109POPS   H6X12121   5.363   6.418   3.187
  109POPS   H6Y12122   5.300   6.258   3.145
  109POPS   C3712123   5.163   6.378   3.263
  109POPS   H7X12124   5.086   6.301   3.246
  109POPS   H7Y12125   5.115   6.477   3.250
  109POPS   C3812126   5.206   6.379   3.411
  109POPS   H8X12127   5.271   6.467   3.429
  109POPS   H8Y12128   5.263   6.287   3.435
  109POPS   C3912129   5.079   6.390   3.497
  109POPS   H9X12130   5.014   6.306   3.469
  109POPS   H9Y12131   5.027   6.486   3.471
  109POPS  C31012132   5.097   6.388   3.648
  109POPS  H10X12133   5.158   6.302   3.682
  109POPS  H10Y12134   4.997   6.379   3.697
  109POPS  C31112135   5.162   6.517   3.696
  109POPS  H11X12136   5.091   6.602   3.689
  109POPS  H11Y12137   5.250   6.541   3.631
  109POPS  C31212138   5.212   6.503   3.839
  109POPS  H12X12139   5.286   6.583   3.853
  109POPS  H12Y12140   5.264   6.406   3.853
  109POPS  C31312141   5.097   6.518   3.938
  109POPS  H13X12142   5.011   6.456   3.905
  109POPS  H13Y12143   5.063   6.624   3.939
  109POPS  C31412144   5.130   6.473   4.080
  109POPS  H14X12145   5.139   6.362   4.081
  109POPS  H14Y12146   5.042   6.498   4.144
  109POPS  C31512147   5.257   6.528   4.146
  109POPS  H15X12148   5.336   6.450   4.146
  109POPS  H15Y12149   5.217   6.538   4.250
  109POPS  C31612150   5.321   6.663   4.110
  109POPS  H16X12151   5.360   6.666   4.008
  109POPS  H16Y12152   5.408   6.682   4.175
  109POPS  H16Z12153   5.252   6.748   4.122
  110POPS     N12154   3.986   0.485   2.143
  110POPS   HN112155   4.048   0.493   2.059
  110POPS   HN212156   4.026   0.412   2.206
  110POPS   HN312157   3.887   0.464   2.122
  110POPS   C1212158   4.002   0.617   2.206
  110POPS  H12A12159   3.928   0.685   2.167
  110POPS   C1312160   4.143   0.668   2.166
  110POPS  O13A12161   4.226   0.582   2.124
  110POPS  O13B12162   4.165   0.792   2.167
  110POPS   C1112163   3.982   0.596   2.358
  110POPS  H11A12164   3.988   0.696   2.408
  110POPS  H11B12165   4.065   0.534   2.399
  110POPS     P12166   3.817   0.495   2.527
  110POPS   O1312167   3.671   0.511   2.547
  110POPS   O1412168   3.907   0.569   2.618
  110POPS   O1212169   3.853   0.534   2.378
  110POPS   O1112170   3.851   0.340   2.527
  110POPS    C112171   3.769   0.251   2.450
  110POPS    HA12172   3.795   0.262   2.342
  110POPS    HB12173   3.660   0.274   2.462
  110POPS    C212174   3.789   0.101   2.489
  110POPS    HS12175   3.719   0.040   2.427
  110POPS   O2112176   3.764   0.073   2.626
  110POPS   C2112177   3.659   0.114   2.691
  110POPS   O2212178   3.545   0.125   2.647
  110POPS   C2212179   3.709   0.137   2.836
  110POPS   H2R12180   3.762   0.235   2.835
  110POPS   H2S12181   3.784   0.059   2.859
  110POPS    C312182   3.935   0.052   2.460
  110POPS    HX12183   3.945   0.036   2.351
  110POPS    HY12184   3.948  -0.048   2.509
  110POPS   O3112185   4.037   0.145   2.503
  110POPS   C3112186   4.048   0.155   2.635
  110POPS   O3212187   4.003   0.075   2.715
  110POPS   C3212188   4.139   0.271   2.673
  110POPS   H2X12189   4.171   0.322   2.580
  110POPS   H2Y12190   4.227   0.227   2.724
  110POPS   C2312191   3.605   0.137   2.950
  110POPS   H3R12192   3.552   0.039   2.951
  110POPS   H3S12193   3.531   0.217   2.929
  110POPS   C2412194   3.667   0.157   3.091
  110POPS   H4R12195   3.756   0.092   3.103
  110POPS   H4S12196   3.593   0.125   3.168
  110POPS   C2512197   3.706   0.303   3.123
  110POPS   H5R12198   3.618   0.369   3.107
  110POPS   H5S12199   3.782   0.333   3.049
  110POPS   C2612200   3.761   0.326   3.267
  110POPS   H6R12201   3.856   0.383   3.265
  110POPS   H6S12202   3.781   0.228   3.315
  110POPS   C2712203   3.658   0.406   3.348
  110POPS   H7R12204   3.568   0.348   3.329
  110POPS   H7S12205   3.644   0.505   3.301
  110POPS   C2812206   3.679   0.425   3.500
  110POPS   H8R12207   3.608   0.505   3.531
  110POPS   H8S12208   3.780   0.469   3.514
  110POPS   C2912209   3.653   0.306   3.590
  110POPS   H9112210   3.550   0.295   3.627
  110POPS  C21012211   3.746   0.221   3.634
  110POPS  H10112212   3.720   0.142   3.706
  110POPS  C21112213   3.891   0.232   3.598
  110POPS  H11R12214   3.905   0.251   3.489
  110POPS  H11S12215   3.941   0.134   3.619
  110POPS  C21212216   3.961   0.343   3.678
  110POPS  H12R12217   3.902   0.438   3.680
  110POPS  H12S12218   4.059   0.367   3.633
  110POPS  C21312219   3.981   0.294   3.821
  110POPS  H13R12220   4.038   0.200   3.814
  110POPS  H13S12221   3.882   0.270   3.866
  110POPS  C21412222   4.054   0.389   3.916
  110POPS  H14R12223   3.991   0.479   3.931
  110POPS  H14S12224   4.152   0.420   3.874
  110POPS  C21512225   4.070   0.317   4.049
  110POPS  H15R12226   4.145   0.237   4.040
  110POPS  H15S12227   3.972   0.268   4.071
  110POPS  C21612228   4.108   0.402   4.169
  110POPS  H16R12229   4.057   0.500   4.166
  110POPS  H16S12230   4.217   0.419   4.168
  110POPS  C21712231   4.064   0.326   4.295
  110POPS  H17R12232   4.074   0.216   4.279
  110POPS  H17S12233   3.956   0.339   4.308
  110POPS  C21812234   4.140   0.369   4.419
  110POPS  H18R12235   4.105   0.316   4.510
  110POPS  H18S12236   4.128   0.478   4.432
  110POPS  H18T12237   4.249   0.350   4.407
  110POPS   C3312238   4.072   0.375   2.766
  110POPS   H3X12239   3.963   0.376   2.748
  110POPS   H3Y12240   4.111   0.476   2.742
  110POPS   C3412241   4.090   0.353   2.917
  110POPS   H4X12242   4.195   0.365   2.948
  110POPS   H4Y12243   4.057   0.249   2.940
  110POPS   C3512244   4.000   0.450   2.995
  110POPS   H5X12245   3.984   0.409   3.097
  110POPS   H5Y12246   3.902   0.456   2.943
  110POPS   C3612247   4.055   0.593   3.007
  110POPS   H6X12248   3.968   0.663   3.011
  110POPS   H6Y12249   4.113   0.618   2.916
  110POPS   C3712250   4.139   0.613   3.134
  110POPS   H7X12251   4.200   0.705   3.122
  110POPS   H7Y12252   4.209   0.527   3.146
  110POPS   C3812253   4.052   0.628   3.260
  110POPS   H8X12254   3.997   0.534   3.280
  110POPS   H8Y12255   3.976   0.708   3.241
  110POPS   C3912256   4.133   0.664   3.384
  110POPS   H9X12257   4.199   0.750   3.360
  110POPS   H9Y12258   4.197   0.578   3.414
  110POPS  C31012259   4.042   0.704   3.501
  110POPS  H10X12260   3.981   0.618   3.535
  110POPS  H10Y12261   3.972   0.783   3.465
  110POPS  C31112262   4.122   0.762   3.617
  110POPS  H11X12263   4.187   0.843   3.576
  110POPS  H11Y12264   4.189   0.684   3.660
  110POPS  C31212265   4.034   0.824   3.727
  110POPS  H12X12266   3.946   0.869   3.679
  110POPS  H12Y12267   4.090   0.907   3.775
  110POPS  C31312268   3.994   0.723   3.837
  110POPS  H13X12269   4.081   0.656   3.855
  110POPS  H13Y12270   3.911   0.660   3.798
  110POPS  C31412271   3.957   0.788   3.971
  110POPS  H14X12272   3.916   0.888   3.951
  110POPS  H14Y12273   4.050   0.803   4.031
  110POPS  C31512274   3.853   0.715   4.059
  110POPS  H15X12275   3.834   0.780   4.148
  110POPS  H15Y12276   3.897   0.621   4.097
  110POPS  C31612277   3.718   0.685   3.993
  110POPS  H16X12278   3.677   0.773   3.942
  110POPS  H16Y12279   3.642   0.659   4.069
  110POPS  H16Z12280   3.727   0.602   3.920
  111POPS     N12281   3.256   6.949   2.244
  111POPS   HN112282   3.287   6.876   2.312
  111POPS   HN212283   3.153   6.961   2.240
  111POPS   HN312284   3.302   6.924   2.155
  111POPS   C1212285   3.312   7.072   2.305
  111POPS  H12A12286   3.332   7.146   2.229
  111POPS   C1312287   3.442   7.039   2.376
  111POPS  O13A12288   3.471   6.918   2.395
  111POPS  O13B12289   3.515   7.133   2.411
  111POPS   C1112290   3.211   7.122   2.411
  111POPS  H11A12291   3.255   7.206   2.470
  111POPS  H11B12292   3.191   7.040   2.484
  111POPS     P12293   3.071   7.309   2.300
  111POPS   O1312294   2.964   7.317   2.197
  111POPS   O1412295   3.201   7.366   2.261
  111POPS   O1212296   3.089   7.158   2.345
  111POPS   O1112297   3.028   7.383   2.430
  111POPS    C112298   2.947   7.327   2.532
  111POPS    HA12299   2.972   7.220   2.555
  111POPS    HB12300   2.840   7.332   2.502
  111POPS    C212301   2.969   7.410   2.661
  111POPS    HS12302   2.945   7.516   2.636
  111POPS   O2112303   3.108   7.397   2.699
  111POPS   C2112304   3.151   7.482   2.791
  111POPS   O2212305   3.081   7.558   2.855
  111POPS   C2212306   3.303   7.474   2.802
  111POPS   H2R12307   3.341   7.576   2.823
  111POPS   H2S12308   3.343   7.442   2.704
  111POPS    C312309   2.872   7.363   2.772
  111POPS    HX12310   2.769   7.378   2.732
  111POPS    HY12311   2.883   7.426   2.863
  111POPS   O3112312   2.897   7.226   2.806
  111POPS   C3112313   2.800   7.172   2.878
  111POPS   O3212314   2.689   7.218   2.894
  111POPS   C3212315   2.854   7.057   2.959
  111POPS   H2X12316   2.934   7.007   2.901
  111POPS   H2Y12317   2.771   6.985   2.975
  111POPS   C2312318   3.346   7.376   2.912
  111POPS   H3R12319   3.451   7.345   2.895
  111POPS   H3S12320   3.284   7.284   2.906
  111POPS   C2412321   3.338   7.435   3.054
  111POPS   H4R12322   3.239   7.484   3.069
  111POPS   H4S12323   3.416   7.512   3.068
  111POPS   C2512324   3.354   7.323   3.158
  111POPS   H5R12325   3.452   7.273   3.142
  111POPS   H5S12326   3.275   7.248   3.138
  111POPS   C2612327   3.342   7.366   3.305
  111POPS   H6R12328   3.416   7.446   3.328
  111POPS   H6S12329   3.369   7.277   3.367
  111POPS   C2712330   3.200   7.410   3.344
  111POPS   H7R12331   3.125   7.337   3.307
  111POPS   H7S12332   3.180   7.507   3.293
  111POPS   C2812333   3.184   7.431   3.496
  111POPS   H8R12334   3.092   7.492   3.512
  111POPS   H8S12335   3.271   7.493   3.529
  111POPS   C2912336   3.172   7.305   3.577
  111POPS   H9112337   3.093   7.236   3.543
  111POPS  C21012338   3.248   7.269   3.682
  111POPS  H10112339   3.224   7.173   3.732
  111POPS  C21112340   3.364   7.342   3.746
  111POPS  H11R12341   3.410   7.414   3.675
  111POPS  H11S12342   3.443   7.267   3.769
  111POPS  C21212343   3.332   7.414   3.879
  111POPS  H12R12344   3.279   7.510   3.858
  111POPS  H12S12345   3.427   7.442   3.929
  111POPS  C21312346   3.246   7.331   3.975
  111POPS  H13R12347   3.302   7.240   4.006
  111POPS  H13S12348   3.154   7.299   3.920
  111POPS  C21412349   3.198   7.409   4.098
  111POPS  H14R12350   3.138   7.493   4.061
  111POPS  H14S12351   3.286   7.453   4.149
  111POPS  C21512352   3.114   7.332   4.203
  111POPS  H15R12353   3.053   7.404   4.263
  111POPS  H15S12354   3.191   7.289   4.271
  111POPS  C21612355   3.026   7.213   4.158
  111POPS  H16R12356   3.046   7.130   4.230
  111POPS  H16S12357   3.058   7.179   4.058
  111POPS  C21712358   2.873   7.228   4.152
  111POPS  H17R12359   2.834   7.153   4.079
  111POPS  H17S12360   2.850   7.327   4.111
  111POPS  C21812361   2.797   7.204   4.284
  111POPS  H18R12362   2.691   7.237   4.273
  111POPS  H18S12363   2.843   7.261   4.368
  111POPS  H18T12364   2.795   7.096   4.310
  111POPS   C3312365   2.905   7.109   3.095
  111POPS   H3X12366   2.825   7.170   3.144
  111POPS   H3Y12367   2.994   7.176   3.081
  111POPS   C3412368   2.940   6.994   3.188
  111POPS   H4X12369   2.852   6.926   3.191
  111POPS   H4Y12370   2.957   7.031   3.292
  111POPS   C3512371   3.057   6.908   3.141
  111POPS   H5X12372   3.046   6.882   3.033
  111POPS   H5Y12373   3.052   6.812   3.196
  111POPS   C3612374   3.193   6.971   3.165
  111POPS   H6X12375   3.201   7.065   3.107
  111POPS   H6Y12376   3.272   6.903   3.126
  111POPS   C3712377   3.221   6.998   3.314
  111POPS   H7X12378   3.162   6.927   3.376
  111POPS   H7Y12379   3.188   7.101   3.341
  111POPS   C3812380   3.370   6.979   3.347
  111POPS   H8X12381   3.430   7.042   3.277
  111POPS   H8Y12382   3.396   6.873   3.329
  111POPS   C3912383   3.408   7.015   3.491
  111POPS   H9X12384   3.396   7.123   3.509
  111POPS   H9Y12385   3.517   6.992   3.503
  111POPS  C31012386   3.329   6.937   3.596
  111POPS  H10X12387   3.321   6.831   3.562
  111POPS  H10Y12388   3.225   6.976   3.605
  111POPS  C31112389   3.400   6.938   3.732
  111POPS  H11X12390   3.387   7.036   3.782
  111POPS  H11Y12391   3.509   6.926   3.713
  111POPS  C31212392   3.353   6.824   3.823
  111POPS  H12X12393   3.434   6.807   3.898
  111POPS  H12Y12394   3.340   6.730   3.766
  111POPS  C31312395   3.225   6.860   3.896
  111POPS  H13X12396   3.135   6.822   3.844
  111POPS  H13Y12397   3.217   6.971   3.896
  111POPS  C31412398   3.227   6.816   4.043
  111POPS  H14X12399   3.330   6.826   4.085
  111POPS  H14Y12400   3.196   6.710   4.053
  111POPS  C31512401   3.136   6.907   4.123
  111POPS  H15X12402   3.172   7.011   4.107
  111POPS  H15Y12403   3.148   6.889   4.231
  111POPS  C31612404   2.989   6.894   4.083
  111POPS  H16X12405   2.965   6.787   4.067
  111POPS  H16Y12406   2.968   6.949   3.989
  111POPS  H16Z12407   2.922   6.935   4.163
  112POPS     N12408   5.605   0.707   2.363
  112POPS   HN112409   5.555   0.786   2.409
  112POPS   HN212410   5.551   0.620   2.359
  112POPS   HN312411   5.697   0.691   2.409
  112POPS   C1212412   5.639   0.760   2.226
  112POPS  H12A12413   5.551   0.757   2.164
  112POPS   C1312414   5.751   0.679   2.157
  112POPS  O13A12415   5.799   0.582   2.222
  112POPS  O13B12416   5.789   0.711   2.041
  112POPS   C1112417   5.684   0.907   2.247
  112POPS  H11A12418   5.679   0.960   2.149
  112POPS  H11B12419   5.790   0.909   2.281
  112POPS     P12420   5.641   1.053   2.465
  112POPS   O1312421   5.642   1.196   2.426
  112POPS   O1412422   5.767   0.996   2.515
  112POPS   O1212423   5.595   0.969   2.341
  112POPS   O1112424   5.520   1.015   2.560
  112POPS    C112425   5.386   1.055   2.528
  112POPS    HA12426   5.341   0.984   2.456
  112POPS    HB12427   5.385   1.157   2.481
  112POPS    C212428   5.293   1.064   2.653
  112POPS    HS12429   5.225   1.151   2.638
  112POPS   O2112430   5.370   1.076   2.773
  112POPS   C2112431   5.403   1.197   2.813
  112POPS   O2212432   5.355   1.302   2.776
  112POPS   C2212433   5.505   1.182   2.927
  112POPS   H2R12434   5.496   1.080   2.969
  112POPS   H2S12435   5.479   1.255   3.007
  112POPS    C312436   5.203   0.936   2.666
  112POPS    HX12437   5.138   0.932   2.575
  112POPS    HY12438   5.134   0.945   2.752
  112POPS   O3112439   5.281   0.815   2.672
  112POPS   C3112440   5.331   0.787   2.794
  112POPS   O3212441   5.299   0.840   2.898
  112POPS   C3212442   5.437   0.678   2.778
  112POPS   H2X12443   5.478   0.684   2.676
  112POPS   H2Y12444   5.384   0.582   2.790
  112POPS   C2312445   5.648   1.207   2.876
  112POPS   H3R12446   5.661   1.316   2.863
  112POPS   H3S12447   5.656   1.163   2.773
  112POPS   C2412448   5.764   1.138   2.952
  112POPS   H4R12449   5.857   1.150   2.893
  112POPS   H4S12450   5.740   1.031   2.954
  112POPS   C2512451   5.795   1.173   3.099
  112POPS   H5R12452   5.822   1.280   3.112
  112POPS   H5S12453   5.885   1.115   3.127
  112POPS   C2612454   5.684   1.133   3.196
  112POPS   H6R12455   5.635   1.039   3.164
  112POPS   H6S12456   5.603   1.208   3.192
  112POPS   C2712457   5.737   1.116   3.339
  112POPS   H7R12458   5.821   1.187   3.354
  112POPS   H7S12459   5.784   1.017   3.353
  112POPS   C2812460   5.628   1.143   3.444
  112POPS   H8R12461   5.558   1.218   3.403
  112POPS   H8S12462   5.675   1.192   3.532
  112POPS   C2912463   5.555   1.018   3.482
  112POPS   H9112464   5.477   0.984   3.412
  112POPS  C21012465   5.576   0.951   3.596
  112POPS  H10112466   5.510   0.866   3.620
  112POPS  C21112467   5.675   0.989   3.705
  112POPS  H11R12468   5.757   1.055   3.668
  112POPS  H11S12469   5.722   0.898   3.748
  112POPS  C21212470   5.591   1.063   3.810
  112POPS  H12R12471   5.517   0.987   3.844
  112POPS  H12S12472   5.538   1.147   3.761
  112POPS  C21312473   5.658   1.118   3.937
  112POPS  H13R12474   5.747   1.057   3.964
  112POPS  H13S12475   5.585   1.110   4.020
  112POPS  C21412476   5.678   1.270   3.942
  112POPS  H14R12477   5.583   1.321   3.916
  112POPS  H14S12478   5.750   1.298   3.864
  112POPS  C21512479   5.723   1.318   4.083
  112POPS  H15R12480   5.636   1.311   4.151
  112POPS  H15S12481   5.752   1.425   4.078
  112POPS  C21612482   5.838   1.233   4.142
  112POPS  H16R12483   5.898   1.191   4.059
  112POPS  H16S12484   5.791   1.145   4.188
  112POPS  C21712485   5.938   1.299   4.240
  112POPS  H17R12486   6.012   1.363   4.189
  112POPS  H17S12487   6.000   1.218   4.285
  112POPS  C21812488   5.884   1.392   4.349
  112POPS  H18R12489   5.965   1.462   4.380
  112POPS  H18S12490   5.854   1.334   4.438
  112POPS  H18T12491   5.800   1.453   4.311
  112POPS   C3312492   5.554   0.683   2.881
  112POPS   H3X12493   5.615   0.592   2.864
  112POPS   H3Y12494   5.516   0.680   2.985
  112POPS   C3412495   5.649   0.803   2.866
  112POPS   H4X12496   5.603   0.888   2.920
  112POPS   H4Y12497   5.656   0.834   2.759
  112POPS   C3512498   5.794   0.777   2.915
  112POPS   H5X12499   5.855   0.871   2.910
  112POPS   H5Y12500   5.843   0.708   2.843
  112POPS   C3612501   5.811   0.717   3.056
  112POPS   H6X12502   5.919   0.695   3.074
  112POPS   H6Y12503   5.755   0.621   3.060
  112POPS   C3712504   5.765   0.808   3.170
  112POPS   H7X12505   5.660   0.839   3.149
  112POPS   H7Y12506   5.829   0.898   3.171
  112POPS   C3812507   5.767   0.739   3.307
  112POPS   H8X12508   5.766   0.817   3.387
  112POPS   H8Y12509   5.859   0.679   3.321
  112POPS   C3912510   5.642   0.655   3.326
  112POPS   H9X12511   5.644   0.565   3.260
  112POPS   H9Y12512   5.554   0.717   3.294
  112POPS  C31012513   5.616   0.614   3.471
  112POPS  H10X12514   5.642   0.699   3.538
  112POPS  H10Y12515   5.681   0.529   3.498
  112POPS  C31112516   5.469   0.579   3.490
  112POPS  H11X12517   5.441   0.506   3.411
  112POPS  H11Y12518   5.405   0.669   3.476
  112POPS  C31212519   5.441   0.517   3.627
  112POPS  H12X12520   5.512   0.432   3.639
  112POPS  H12Y12521   5.337   0.479   3.631
  112POPS  C31312522   5.471   0.605   3.747
  112POPS  H13X12523   5.415   0.700   3.743
  112POPS  H13Y12524   5.580   0.627   3.743
  112POPS  C31412525   5.439   0.530   3.877
  112POPS  H14X12526   5.448   0.420   3.859
  112POPS  H14Y12527   5.333   0.549   3.905
  112POPS  C31512528   5.534   0.564   3.993
  112POPS  H15X12529   5.623   0.497   3.989
  112POPS  H15Y12530   5.481   0.543   4.089
  112POPS  C31612531   5.583   0.709   3.990
  112POPS  H16X12532   5.671   0.721   3.922
  112POPS  H16Y12533   5.613   0.744   4.091
  112POPS  H16Z12534   5.502   0.774   3.951
  113POPS     N12535   7.469   3.394   2.163
  113POPS   HN112536   7.506   3.418   2.259
  113POPS   HN212537   7.525   3.319   2.115
  113POPS   HN312538   7.458   3.479   2.104
  113POPS   C1212539   7.333   3.340   2.189
  113POPS  H12A12540   7.340   3.233   2.191
  113POPS   C1312541   7.230   3.374   2.079
  113POPS  O13A12542   7.259   3.454   1.984
  113POPS  O13B12543   7.127   3.302   2.080
  113POPS   C1112544   7.294   3.388   2.332
  113POPS  H11A12545   7.196   3.341   2.359
  113POPS  H11B12546   7.278   3.498   2.328
  113POPS     P12547   7.392   3.253   2.541
  113POPS   O1312548   7.530   3.214   2.573
  113POPS   O1412549   7.305   3.147   2.488
  113POPS   O1212550   7.400   3.359   2.424
  113POPS   O1112551   7.325   3.344   2.655
  113POPS    C112552   7.388   3.469   2.692
  113POPS    HA12553   7.366   3.546   2.615
  113POPS    HB12554   7.499   3.458   2.697
  113POPS    C212555   7.341   3.527   2.831
  113POPS    HS12556   7.400   3.619   2.852
  113POPS   O2112557   7.357   3.429   2.935
  113POPS   C2112558   7.475   3.429   2.994
  113POPS   O2212559   7.563   3.512   2.979
  113POPS   C2212560   7.483   3.307   3.085
  113POPS   H2R12561   7.586   3.293   3.120
  113POPS   H2S12562   7.457   3.220   3.021
  113POPS    C312563   7.192   3.573   2.826
  113POPS    HX12564   7.144   3.486   2.774
  113POPS    HY12565   7.190   3.661   2.759
  113POPS   O3112566   7.128   3.606   2.956
  113POPS   C3112567   6.993   3.598   2.938
  113POPS   O3212568   6.946   3.580   2.829
  113POPS   C3212569   6.895   3.618   3.054
  113POPS   H2X12570   6.866   3.725   3.047
  113POPS   H2Y12571   6.950   3.625   3.146
  113POPS   C2312572   7.386   3.310   3.205
  113POPS   H3R12573   7.317   3.397   3.195
  113POPS   H3S12574   7.443   3.326   3.299
  113POPS   C2412575   7.308   3.177   3.210
  113POPS   H4R12576   7.385   3.096   3.213
  113POPS   H4S12577   7.253   3.166   3.114
  113POPS   C2512578   7.208   3.152   3.323
  113POPS   H5R12579   7.190   3.045   3.325
  113POPS   H5S12580   7.106   3.187   3.301
  113POPS   C2612581   7.247   3.195   3.464
  113POPS   H6R12582   7.155   3.234   3.514
  113POPS   H6S12583   7.321   3.276   3.464
  113POPS   C2712584   7.292   3.073   3.544
  113POPS   H7R12585   7.390   3.035   3.505
  113POPS   H7S12586   7.217   2.996   3.521
  113POPS   C2812587   7.290   3.094   3.695
  113POPS   H8R12588   7.273   2.997   3.747
  113POPS   H8S12589   7.209   3.162   3.724
  113POPS   C2912590   7.424   3.149   3.730
  113POPS   H9112591   7.495   3.072   3.763
  113POPS  C21012592   7.465   3.276   3.727
  113POPS  H10112593   7.570   3.291   3.755
  113POPS  C21112594   7.398   3.407   3.689
  113POPS  H11R12595   7.289   3.400   3.706
  113POPS  H11S12596   7.413   3.432   3.582
  113POPS  C21212597   7.457   3.523   3.775
  113POPS  H12R12598   7.388   3.610   3.770
  113POPS  H12S12599   7.556   3.554   3.734
  113POPS  C21312600   7.474   3.472   3.919
  113POPS  H13R12601   7.558   3.400   3.915
  113POPS  H13S12602   7.377   3.423   3.940
  113POPS  C21412603   7.512   3.553   4.043
  113POPS  H14R12604   7.456   3.648   4.051
  113POPS  H14S12605   7.621   3.578   4.036
  113POPS  C21512606   7.487   3.462   4.167
  113POPS  H15R12607   7.385   3.484   4.207
  113POPS  H15S12608   7.556   3.489   4.248
  113POPS  C21612609   7.491   3.309   4.137
  113POPS  H16R12610   7.578   3.284   4.073
  113POPS  H16S12611   7.398   3.283   4.080
  113POPS  C21712612   7.493   3.210   4.253
  113POPS  H17R12613   7.467   3.110   4.211
  113POPS  H17S12614   7.412   3.238   4.322
  113POPS  C21812615   7.626   3.195   4.326
  113POPS  H18R12616   7.709   3.180   4.254
  113POPS  H18S12617   7.626   3.107   4.393
  113POPS  H18T12618   7.648   3.285   4.386
  113POPS   C3312619   6.753   3.541   3.044
  113POPS   H3X12620   6.715   3.574   2.945
  113POPS   H3Y12621   6.690   3.590   3.121
  113POPS   C3412622   6.708   3.386   3.051
  113POPS   H4X12623   6.762   3.306   2.999
  113POPS   H4Y12624   6.618   3.392   2.985
  113POPS   C3512625   6.653   3.329   3.185
  113POPS   H5X12626   6.553   3.287   3.166
  113POPS   H5Y12627   6.633   3.423   3.233
  113POPS   C3612628   6.731   3.222   3.273
  113POPS   H6X12629   6.837   3.227   3.249
  113POPS   H6Y12630   6.693   3.122   3.245
  113POPS   C3712631   6.735   3.236   3.430
  113POPS   H7X12632   6.644   3.200   3.477
  113POPS   H7Y12633   6.736   3.344   3.437
  113POPS   C3812634   6.863   3.220   3.521
  113POPS   H8X12635   6.952   3.202   3.459
  113POPS   H8Y12636   6.858   3.131   3.584
  113POPS   C3912637   6.880   3.346   3.615
  113POPS   H9X12638   6.788   3.359   3.674
  113POPS   H9Y12639   6.889   3.439   3.559
  113POPS  C31012640   7.004   3.353   3.706
  113POPS  H10X12641   7.083   3.410   3.652
  113POPS  H10Y12642   7.039   3.250   3.722
  113POPS  C31112643   6.980   3.419   3.844
  113POPS  H11X12644   6.906   3.358   3.901
  113POPS  H11Y12645   6.937   3.521   3.829
  113POPS  C31212646   7.110   3.431   3.927
  113POPS  H12X12647   7.179   3.495   3.867
  113POPS  H12Y12648   7.157   3.332   3.937
  113POPS  C31312649   7.100   3.499   4.066
  113POPS  H13X12650   7.049   3.597   4.056
  113POPS  H13Y12651   7.205   3.520   4.097
  113POPS  C31412652   7.035   3.419   4.181
  113POPS  H14X12653   6.926   3.408   4.161
  113POPS  H14Y12654   7.046   3.481   4.273
  113POPS  C31512655   7.097   3.282   4.211
  113POPS  H15X12656   7.207   3.292   4.217
  113POPS  H15Y12657   7.075   3.213   4.126
  113POPS  C31612658   7.045   3.220   4.342
  113POPS  H16X12659   7.083   3.116   4.354
  113POPS  H16Y12660   6.934   3.219   4.343
  113POPS  H16Z12661   7.080   3.280   4.429
  114POPS     N12662   6.771   1.876   2.077
  114POPS   HN112663   6.706   1.794   2.077
  114POPS   HN212664   6.763   1.933   1.991
  114POPS   HN312665   6.867   1.840   2.090
  114POPS   C1212666   6.744   1.962   2.197
  114POPS  H12A12667   6.640   1.988   2.200
  114POPS   C1312668   6.823   2.093   2.193
  114POPS  O13A12669   6.913   2.104   2.106
  114POPS  O13B12670   6.785   2.187   2.268
  114POPS   C1112671   6.775   1.874   2.319
  114POPS  H11A12672   6.743   1.924   2.414
  114POPS  H11B12673   6.886   1.856   2.327
  114POPS     P12674   6.738   1.630   2.382
  114POPS   O1312675   6.817   1.666   2.500
  114POPS   O1412676   6.792   1.530   2.287
  114POPS   O1212677   6.700   1.755   2.297
  114POPS   O1112678   6.595   1.585   2.426
  114POPS    C112679   6.520   1.683   2.499
  114POPS    HA12680   6.417   1.682   2.457
  114POPS    HB12681   6.554   1.788   2.486
  114POPS    C212682   6.510   1.645   2.649
  114POPS    HS12683   6.414   1.689   2.681
  114POPS   O2112684   6.615   1.691   2.735
  114POPS   C2112685   6.646   1.818   2.749
  114POPS   O2212686   6.615   1.911   2.677
  114POPS   C2212687   6.716   1.835   2.887
  114POPS   H2R12688   6.824   1.828   2.868
  114POPS   H2S12689   6.681   1.750   2.945
  114POPS    C312690   6.499   1.488   2.667
  114POPS    HX12691   6.481   1.445   2.566
  114POPS    HY12692   6.405   1.467   2.722
  114POPS   O3112693   6.615   1.425   2.727
  114POPS   C3112694   6.612   1.419   2.862
  114POPS   O3212695   6.511   1.433   2.929
  114POPS   C3212696   6.749   1.380   2.918
  114POPS   H2X12697   6.799   1.311   2.848
  114POPS   H2Y12698   6.729   1.326   3.013
  114POPS   C2312699   6.678   1.959   2.974
  114POPS   H3R12700   6.570   1.956   2.998
  114POPS   H3S12701   6.699   2.050   2.913
  114POPS   C2412702   6.757   1.973   3.107
  114POPS   H4R12703   6.767   2.081   3.130
  114POPS   H4S12704   6.860   1.933   3.092
  114POPS   C2512705   6.699   1.907   3.235
  114POPS   H5R12706   6.714   1.797   3.225
  114POPS   H5S12707   6.590   1.926   3.243
  114POPS   C2612708   6.771   1.952   3.364
  114POPS   H6R12709   6.745   2.057   3.389
  114POPS   H6S12710   6.879   1.949   3.342
  114POPS   C2712711   6.747   1.863   3.489
  114POPS   H7R12712   6.714   1.762   3.456
  114POPS   H7S12713   6.664   1.906   3.549
  114POPS   C2812714   6.871   1.844   3.581
  114POPS   H8R12715   6.842   1.778   3.666
  114POPS   H8S12716   6.897   1.942   3.627
  114POPS   C2912717   6.992   1.787   3.511
  114POPS   H9112718   7.057   1.861   3.464
  114POPS  C21012719   7.027   1.658   3.498
  114POPS  H10112720   7.119   1.632   3.445
  114POPS  C21112721   6.949   1.542   3.553
  114POPS  H11R12722   6.916   1.476   3.470
  114POPS  H11S12723   6.858   1.577   3.607
  114POPS  C21212724   7.022   1.456   3.655
  114POPS  H12R12725   7.106   1.402   3.608
  114POPS  H12S12726   6.949   1.380   3.691
  114POPS  C21312727   7.071   1.537   3.775
  114POPS  H13R12728   7.028   1.639   3.775
  114POPS  H13S12729   7.181   1.546   3.762
  114POPS  C21412730   7.040   1.471   3.909
  114POPS  H14R12731   7.114   1.508   3.984
  114POPS  H14S12732   7.059   1.363   3.900
  114POPS  C21512733   6.897   1.497   3.962
  114POPS  H15R12734   6.848   1.399   3.981
  114POPS  H15S12735   6.837   1.548   3.884
  114POPS  C21612736   6.901   1.580   4.092
  114POPS  H16R12737   6.913   1.687   4.066
  114POPS  H16S12738   6.990   1.548   4.150
  114POPS  C21712739   6.780   1.563   4.186
  114POPS  H17R12740   6.805   1.611   4.283
  114POPS  H17S12741   6.760   1.455   4.207
  114POPS  C21812742   6.653   1.624   4.132
  114POPS  H18R12743   6.666   1.732   4.111
  114POPS  H18S12744   6.569   1.611   4.203
  114POPS  H18T12745   6.629   1.572   4.037
  114POPS   C3312746   6.840   1.500   2.951
  114POPS   H3X12747   6.841   1.569   2.863
  114POPS   H3Y12748   6.945   1.467   2.965
  114POPS   C3412749   6.793   1.576   3.075
  114POPS   H4X12750   6.685   1.598   3.059
  114POPS   H4Y12751   6.847   1.673   3.083
  114POPS   C3512752   6.796   1.505   3.211
  114POPS   H5X12753   6.875   1.553   3.273
  114POPS   H5Y12754   6.822   1.398   3.199
  114POPS   C3612755   6.658   1.519   3.278
  114POPS   H6X12756   6.584   1.464   3.215
  114POPS   H6Y12757   6.626   1.625   3.276
  114POPS   C3712758   6.648   1.472   3.422
  114POPS   H7X12759   6.704   1.542   3.487
  114POPS   H7Y12760   6.693   1.371   3.432
  114POPS   C3812761   6.503   1.471   3.472
  114POPS   H8X12762   6.495   1.395   3.553
  114POPS   H8Y12763   6.439   1.439   3.387
  114POPS   C3912764   6.454   1.605   3.526
  114POPS   H9X12765   6.343   1.602   3.532
  114POPS   H9Y12766   6.482   1.688   3.457
  114POPS  C31012767   6.508   1.631   3.667
  114POPS  H10X12768   6.617   1.653   3.662
  114POPS  H10Y12769   6.496   1.539   3.728
  114POPS  C31112770   6.437   1.746   3.738
  114POPS  H11X12771   6.327   1.727   3.741
  114POPS  H11Y12772   6.454   1.840   3.681
  114POPS  C31212773   6.489   1.762   3.881
  114POPS  H12X12774   6.580   1.699   3.889
  114POPS  H12Y12775   6.414   1.723   3.954
  114POPS  C31312776   6.530   1.905   3.915
  114POPS  H13X12777   6.528   1.919   4.025
  114POPS  H13Y12778   6.457   1.976   3.871
  114POPS  C31412779   6.672   1.934   3.865
  114POPS  H14X12780   6.684   1.875   3.771
  114POPS  H14Y12781   6.747   1.896   3.937
  114POPS  C31512782   6.699   2.081   3.832
  114POPS  H15X12783   6.613   2.121   3.773
  114POPS  H15Y12784   6.789   2.087   3.766
  114POPS  C31612785   6.723   2.167   3.956
  114POPS  H16X12786   6.632   2.167   4.020
  114POPS  H16Y12787   6.747   2.272   3.928
  114POPS  H16Z12788   6.807   2.125   4.016
  115POPS     N12789   6.966   6.158   2.132
  115POPS   HN112790   6.901   6.086   2.095
  115POPS   HN212791   6.946   6.251   2.091
  115POPS   HN312792   7.066   6.134   2.111
  115POPS   C1212793   6.956   6.160   2.280
  115POPS  H12A12794   6.873   6.223   2.307
  115POPS   C1312795   7.085   6.219   2.343
  115POPS  O13A12796   7.180   6.251   2.268
  115POPS  O13B12797   7.088   6.234   2.468
  115POPS   C1112798   6.933   6.015   2.332
  115POPS  H11A12799   6.915   6.021   2.443
  115POPS  H11B12800   7.027   5.957   2.319
  115POPS     P12801   6.685   5.930   2.327
  115POPS   O1312802   6.601   5.864   2.224
  115POPS   O1412803   6.643   6.061   2.380
  115POPS   O1212804   6.828   5.949   2.261
  115POPS   O1112805   6.723   5.827   2.441
  115POPS    C112806   6.782   5.699   2.409
  115POPS    HA12807   6.869   5.709   2.341
  115POPS    HB12808   6.705   5.637   2.358
  115POPS    C212809   6.826   5.617   2.536
  115POPS    HS12810   6.804   5.510   2.519
  115POPS   O2112811   6.748   5.666   2.645
  115POPS   C2112812   6.771   5.644   2.769
  115POPS   O2212813   6.852   5.568   2.819
  115POPS   C2212814   6.670   5.729   2.847
  115POPS   H2R12815   6.579   5.668   2.861
  115POPS   H2S12816   6.642   5.818   2.785
  115POPS    C312817   6.980   5.627   2.564
  115POPS    HX12818   7.034   5.624   2.466
  115POPS    HY12819   7.010   5.534   2.619
  115POPS   O3112820   7.016   5.744   2.640
  115POPS   C3112821   7.146   5.749   2.665
  115POPS   O3212822   7.231   5.672   2.622
  115POPS   C3212823   7.178   5.871   2.750
  115POPS   H2X12824   7.191   5.954   2.677
  115POPS   H2Y12825   7.275   5.850   2.799
  115POPS   C2312826   6.729   5.775   2.981
  115POPS   H3R12827   6.810   5.846   2.955
  115POPS   H3S12828   6.773   5.690   3.038
  115POPS   C2412829   6.635   5.852   3.074
  115POPS   H4R12830   6.542   5.795   3.095
  115POPS   H4S12831   6.607   5.948   3.025
  115POPS   C2512832   6.709   5.881   3.204
  115POPS   H5R12833   6.813   5.914   3.179
  115POPS   H5S12834   6.718   5.788   3.265
  115POPS   C2612835   6.645   5.992   3.286
  115POPS   H6R12836   6.540   5.968   3.310
  115POPS   H6S12837   6.646   6.086   3.225
  115POPS   C2712838   6.724   6.016   3.415
  115POPS   H7R12839   6.833   6.008   3.394
  115POPS   H7S12840   6.700   5.936   3.488
  115POPS   C2812841   6.691   6.153   3.476
  115POPS   H8R12842   6.709   6.148   3.585
  115POPS   H8S12843   6.582   6.173   3.465
  115POPS   C2912844   6.772   6.265   3.416
  115POPS   H9112845   6.717   6.333   3.348
  115POPS  C21012846   6.903   6.287   3.438
  115POPS  H10112847   6.951   6.375   3.392
  115POPS  C21112848   6.993   6.203   3.527
  115POPS  H11R12849   7.088   6.181   3.474
  115POPS  H11S12850   6.948   6.105   3.551
  115POPS  C21212851   7.026   6.271   3.661
  115POPS  H12R12852   7.084   6.365   3.641
  115POPS  H12S12853   7.092   6.204   3.721
  115POPS  C21312854   6.903   6.308   3.746
  115POPS  H13R12855   6.831   6.365   3.684
  115POPS  H13S12856   6.937   6.373   3.830
  115POPS  C21412857   6.831   6.190   3.812
  115POPS  H14R12858   6.892   6.159   3.899
  115POPS  H14S12859   6.827   6.104   3.743
  115POPS  C21512860   6.691   6.224   3.863
  115POPS  H15R12861   6.624   6.249   3.778
  115POPS  H15S12862   6.698   6.314   3.928
  115POPS  C21612863   6.630   6.110   3.947
  115POPS  H16R12864   6.536   6.145   3.994
  115POPS  H16S12865   6.702   6.085   4.028
  115POPS  C21712866   6.602   5.983   3.867
  115POPS  H17R12867   6.697   5.948   3.823
  115POPS  H17S12868   6.533   6.005   3.782
  115POPS  C21812869   6.544   5.869   3.951
  115POPS  H18R12870   6.609   5.849   4.039
  115POPS  H18S12871   6.537   5.776   3.891
  115POPS  H18T12872   6.443   5.895   3.988
  115POPS   C3312873   7.073   5.913   2.855
  115POPS   H3X12874   6.972   5.919   2.807
  115POPS   H3Y12875   7.098   6.016   2.890
  115POPS   C3412876   7.066   5.822   2.979
  115POPS   H4X12877   7.041   5.718   2.949
  115POPS   H4Y12878   6.984   5.859   3.045
  115POPS   C3512879   7.190   5.825   3.068
  115POPS   H5X12880   7.202   5.929   3.105
  115POPS   H5Y12881   7.279   5.797   3.009
  115POPS   C3612882   7.181   5.729   3.189
  115POPS   H6X12883   7.284   5.710   3.226
  115POPS   H6Y12884   7.141   5.632   3.152
  115POPS   C3712885   7.093   5.779   3.306
  115POPS   H7X12886   7.000   5.824   3.267
  115POPS   H7Y12887   7.147   5.857   3.364
  115POPS   C3812888   7.054   5.662   3.398
  115POPS   H8X12889   7.145   5.614   3.441
  115POPS   H8Y12890   7.004   5.586   3.334
  115POPS   C3912891   6.957   5.695   3.512
  115POPS   H9X12892   6.917   5.598   3.550
  115POPS   H9Y12893   6.872   5.754   3.473
  115POPS  C31012894   7.016   5.767   3.635
  115POPS  H10X12895   7.061   5.864   3.605
  115POPS  H10Y12896   7.097   5.705   3.680
  115POPS  C31112897   6.904   5.791   3.737
  115POPS  H11X12898   6.825   5.714   3.721
  115POPS  H11Y12899   6.859   5.890   3.714
  115POPS  C31212900   6.942   5.784   3.886
  115POPS  H12X12901   6.998   5.691   3.906
  115POPS  H12Y12902   6.848   5.780   3.946
  115POPS  C31312903   7.021   5.906   3.932
  115POPS  H13X12904   6.987   5.991   3.870
  115POPS  H13Y12905   7.125   5.892   3.900
  115POPS  C31412906   7.006   5.949   4.080
  115POPS  H14X12907   6.900   5.979   4.093
  115POPS  H14Y12908   7.068   6.039   4.098
  115POPS  C31512909   7.036   5.846   4.191
  115POPS  H15X12910   7.005   5.744   4.161
  115POPS  H15Y12911   6.972   5.875   4.278
  115POPS  C31612912   7.180   5.847   4.243
  115POPS  H16X12913   7.221   5.950   4.239
  115POPS  H16Y12914   7.245   5.781   4.182
  115POPS  H16Z12915   7.185   5.813   4.348
  116POPS     N12916   6.451   1.198   2.475
  116POPS   HN112917   6.506   1.265   2.533
  116POPS   HN212918   6.350   1.196   2.499
  116POPS   HN312919   6.490   1.101   2.478
  116POPS   C1212920   6.458   1.235   2.331
  116POPS  H12A12921   6.554   1.282   2.312
  116POPS   C1312922   6.344   1.328   2.284
  116POPS  O13A12923   6.264   1.373   2.370
  116POPS  O13B12924   6.332   1.347   2.160
  116POPS   C1112925   6.448   1.104   2.253
  116POPS  H11A12926   6.479   1.119   2.147
  116POPS  H11B12927   6.339   1.076   2.251
  116POPS     P12928   6.481   0.859   2.305
  116POPS   O1312929   6.569   0.765   2.377
  116POPS   O1412930   6.456   0.833   2.162
  116POPS   O1212931   6.532   1.006   2.315
  116POPS   O1112932   6.346   0.882   2.383
  116POPS    C112933   6.267   0.781   2.440
  116POPS    HA12934   6.290   0.681   2.396
  116POPS    HB12935   6.160   0.802   2.419
  116POPS    C212936   6.283   0.768   2.595
  116POPS    HS12937   6.205   0.693   2.622
  116POPS   O2112938   6.277   0.891   2.671
  116POPS   C2112939   6.171   0.890   2.751
  116POPS   O2212940   6.066   0.837   2.722
  116POPS   C2212941   6.210   0.954   2.885
  116POPS   H2R12942   6.155   1.050   2.892
  116POPS   H2S12943   6.319   0.975   2.884
  116POPS    C312944   6.415   0.701   2.633
  116POPS    HX12945   6.432   0.632   2.549
  116POPS    HY12946   6.405   0.647   2.730
  116POPS   O3112947   6.522   0.791   2.634
  116POPS   C3112948   6.632   0.752   2.695
  116POPS   O3212949   6.638   0.666   2.781
  116POPS   C3212950   6.738   0.852   2.652
  116POPS   H2X12951   6.766   0.829   2.547
  116POPS   H2Y12952   6.829   0.839   2.714
  116POPS   C2312953   6.178   0.867   3.010
  116POPS   H3R12954   6.108   0.785   2.984
  116POPS   H3S12955   6.126   0.932   3.084
  116POPS   C2412956   6.300   0.808   3.085
  116POPS   H4R12957   6.260   0.758   3.176
  116POPS   H4S12958   6.366   0.887   3.123
  116POPS   C2512959   6.381   0.706   3.004
  116POPS   H5R12960   6.468   0.756   2.955
  116POPS   H5S12961   6.316   0.667   2.923
  116POPS   C2612962   6.432   0.584   3.084
  116POPS   H6R12963   6.511   0.614   3.155
  116POPS   H6S12964   6.480   0.515   3.010
  116POPS   C2712965   6.319   0.507   3.157
  116POPS   H7R12966   6.313   0.406   3.110
  116POPS   H7S12967   6.222   0.556   3.139
  116POPS   C2812968   6.333   0.484   3.310
  116POPS   H8R12969   6.439   0.460   3.333
  116POPS   H8S12970   6.276   0.390   3.328
  116POPS   C2912971   6.273   0.588   3.402
  116POPS   H9112972   6.164   0.598   3.397
  116POPS  C21012973   6.340   0.668   3.488
  116POPS  H10112974   6.286   0.740   3.551
  116POPS  C21112975   6.489   0.665   3.505
  116POPS  H11R12976   6.527   0.561   3.499
  116POPS  H11S12977   6.520   0.701   3.605
  116POPS  C21212978   6.556   0.745   3.391
  116POPS  H12R12979   6.481   0.779   3.315
  116POPS  H12S12980   6.621   0.674   3.335
  116POPS  C21312981   6.638   0.870   3.427
  116POPS  H13R12982   6.581   0.956   3.392
  116POPS  H13S12983   6.730   0.866   3.364
  116POPS  C21412984   6.680   0.899   3.571
  116POPS  H14R12985   6.759   0.976   3.563
  116POPS  H14S12986   6.725   0.811   3.621
  116POPS  C21512987   6.573   0.961   3.662
  116POPS  H15R12988   6.489   0.892   3.681
  116POPS  H15S12989   6.533   1.053   3.615
  116POPS  C21612990   6.641   0.999   3.794
  116POPS  H16R12991   6.732   1.058   3.769
  116POPS  H16S12992   6.673   0.906   3.845
  116POPS  C21712993   6.558   1.084   3.889
  116POPS  H17R12994   6.459   1.036   3.909
  116POPS  H17S12995   6.537   1.181   3.840
  116POPS  C21812996   6.631   1.105   4.021
  116POPS  H18R12997   6.667   1.008   4.062
  116POPS  H18S12998   6.566   1.151   4.098
  116POPS  H18T12999   6.720   1.171   4.006
  116POPS   C3313000   6.677   0.995   2.658
  116POPS   H3X13001   6.593   1.002   2.586
  116POPS   H3Y13002   6.753   1.067   2.621
  116POPS   C3413003   6.630   1.032   2.799
  116POPS   H4X13004   6.530   0.986   2.817
  116POPS   H4Y13005   6.619   1.142   2.805
  116POPS   C3513006   6.726   0.978   2.907
  116POPS   H5X13007   6.830   0.985   2.869
  116POPS   H5Y13008   6.705   0.870   2.924
  116POPS   C3613009   6.723   1.047   3.043
  116POPS   H6X13010   6.794   1.132   3.046
  116POPS   H6Y13011   6.757   0.973   3.120
  116POPS   C3713012   6.585   1.094   3.078
  116POPS   H7X13013   6.520   1.004   3.077
  116POPS   H7Y13014   6.543   1.167   3.005
  116POPS   C3813015   6.581   1.160   3.214
  116POPS   H8X13016   6.629   1.260   3.213
  116POPS   H8Y13017   6.642   1.100   3.285
  116POPS   C3913018   6.435   1.171   3.252
  116POPS   H9X13019   6.374   1.092   3.201
  116POPS   H9Y13020   6.398   1.269   3.216
  116POPS  C31013021   6.410   1.154   3.398
  116POPS  H10X13022   6.490   1.204   3.458
  116POPS  H10Y13023   6.409   1.046   3.427
  116POPS  C31113024   6.275   1.212   3.429
  116POPS  H11X13025   6.195   1.151   3.380
  116POPS  H11Y13026   6.267   1.316   3.392
  116POPS  C31213027   6.261   1.210   3.577
  116POPS  H12X13028   6.315   1.300   3.617
  116POPS  H12Y13029   6.309   1.121   3.625
  116POPS  C31313030   6.117   1.214   3.615
  116POPS  H13X13031   6.069   1.114   3.608
  116POPS  H13Y13032   6.060   1.284   3.548
  116POPS  C31413033   6.123   1.268   3.754
  116POPS  H14X13034   6.175   1.367   3.749
  116POPS  H14Y13035   6.182   1.201   3.820
  116POPS  C31513036   5.987   1.289   3.807
  116POPS  H15X13037   5.944   1.195   3.848
  116POPS  H15Y13038   5.921   1.321   3.724
  116POPS  C31613039   5.992   1.399   3.910
  116POPS  H16X13040   6.019   1.354   4.006
  116POPS  H16Y13041   6.073   1.472   3.890
  116POPS  H16Z13042   5.894   1.451   3.912
  117POPS     N13043   7.505   5.344   2.103
  117POPS   HN113044   7.540   5.428   2.053
  117POPS   HN213045   7.577   5.303   2.166
  117POPS   HN313046   7.477   5.273   2.032
  117POPS   C1213047   7.385   5.384   2.182
  117POPS  H12A13048   7.353   5.298   2.238
  117POPS   C1313049   7.263   5.422   2.094
  117POPS  O13A13050   7.279   5.422   1.970
  117POPS  O13B13051   7.153   5.449   2.147
  117POPS   C1113052   7.427   5.496   2.281
  117POPS  H11A13053   7.395   5.597   2.247
  117POPS  H11B13054   7.538   5.504   2.290
  117POPS     P13055   7.438   5.372   2.505
  117POPS   O1313056   7.456   5.239   2.442
  117POPS   O1413057   7.375   5.379   2.637
  117POPS   O1213058   7.366   5.470   2.406
  117POPS   O1113059   7.585   5.433   2.510
  117POPS    C113060   7.615   5.566   2.552
  117POPS    HA13061   7.524   5.622   2.583
  117POPS    HB13062   7.661   5.620   2.466
  117POPS    C213063   7.714   5.570   2.671
  117POPS    HS13064   7.800   5.502   2.650
  117POPS   O2113065   7.639   5.528   2.787
  117POPS   C2113066   7.626   5.394   2.801
  117POPS   O2213067   7.709   5.314   2.759
  117POPS   C2213068   7.502   5.364   2.891
  117POPS   H2R13069   7.420   5.427   2.853
  117POPS   H2S13070   7.521   5.401   2.993
  117POPS    C313071   7.773   5.716   2.684
  117POPS    HX13072   7.693   5.784   2.719
  117POPS    HY13073   7.794   5.748   2.580
  117POPS   O3113074   7.899   5.730   2.757
  117POPS   C3113075   7.880   5.762   2.886
  117POPS   O3213076   7.771   5.766   2.940
  117POPS   C3213077   8.007   5.810   2.962
  117POPS   H2X13078   7.964   5.856   3.053
  117POPS   H2Y13079   8.051   5.888   2.898
  117POPS   C2313080   7.452   5.218   2.902
  117POPS   H3R13081   7.512   5.151   2.837
  117POPS   H3S13082   7.348   5.214   2.860
  117POPS   C2413083   7.449   5.164   3.047
  117POPS   H4R13084   7.552   5.168   3.089
  117POPS   H4S13085   7.419   5.057   3.043
  117POPS   C2513086   7.351   5.238   3.141
  117POPS   H5R13087   7.256   5.253   3.085
  117POPS   H5S13088   7.391   5.339   3.167
  117POPS   C2613089   7.322   5.161   3.271
  117POPS   H6R13090   7.411   5.157   3.336
  117POPS   H6S13091   7.301   5.055   3.240
  117POPS   C2713092   7.196   5.208   3.347
  117POPS   H7R13093   7.165   5.125   3.415
  117POPS   H7S13094   7.115   5.225   3.271
  117POPS   C2813095   7.200   5.334   3.432
  117POPS   H8R13096   7.106   5.339   3.492
  117POPS   H8S13097   7.200   5.422   3.365
  117POPS   C2913098   7.318   5.328   3.524
  117POPS   H9113099   7.312   5.252   3.604
  117POPS  C21013100   7.428   5.402   3.514
  117POPS  H10113101   7.511   5.381   3.582
  117POPS  C21113102   7.461   5.508   3.413
  117POPS  H11R13103   7.378   5.529   3.341
  117POPS  H11S13104   7.543   5.465   3.352
  117POPS  C21213105   7.504   5.639   3.482
  117POPS  H12R13106   7.566   5.700   3.413
  117POPS  H12S13107   7.565   5.617   3.572
  117POPS  C21313108   7.380   5.721   3.521
  117POPS  H13R13109   7.310   5.655   3.577
  117POPS  H13S13110   7.331   5.748   3.425
  117POPS  C21413111   7.397   5.851   3.599
  117POPS  H14R13112   7.298   5.902   3.594
  117POPS  H14S13113   7.468   5.920   3.550
  117POPS  C21513114   7.435   5.836   3.746
  117POPS  H15R13115   7.543   5.814   3.757
  117POPS  H15S13116   7.378   5.749   3.787
  117POPS  C21613117   7.397   5.962   3.825
  117POPS  H16R13118   7.308   6.008   3.775
  117POPS  H16S13119   7.478   6.037   3.822
  117POPS  C21713120   7.354   5.938   3.970
  117POPS  H17R13121   7.295   5.844   3.976
  117POPS  H17S13122   7.288   6.023   3.999
  117POPS  C21813123   7.464   5.928   4.074
  117POPS  H18R13124   7.433   5.978   4.168
  117POPS  H18S13125   7.556   5.978   4.038
  117POPS  H18T13126   7.487   5.822   4.097
  117POPS   C3313127   8.121   5.718   3.016
  117POPS   H3X13128   8.218   5.757   2.978
  117POPS   H3Y13129   8.110   5.618   2.971
  117POPS   C3413130   8.145   5.691   3.167
  117POPS   H4X13131   8.255   5.683   3.183
  117POPS   H4Y13132   8.105   5.590   3.185
  117POPS   C3513133   8.088   5.784   3.276
  117POPS   H5X13134   7.982   5.808   3.255
  117POPS   H5Y13135   8.150   5.875   3.278
  117POPS   C3613136   8.096   5.714   3.414
  117POPS   H6X13137   8.202   5.716   3.446
  117POPS   H6Y13138   8.075   5.610   3.389
  117POPS   C3713139   7.998   5.757   3.527
  117POPS   H7X13140   7.899   5.784   3.483
  117POPS   H7Y13141   8.044   5.850   3.567
  117POPS   C3813142   7.977   5.663   3.651
  117POPS   H8X13143   7.979   5.726   3.739
  117POPS   H8Y13144   8.067   5.603   3.669
  117POPS   C3913145   7.848   5.574   3.658
  117POPS   H9X13146   7.842   5.520   3.564
  117POPS   H9Y13147   7.759   5.639   3.666
  117POPS  C31013148   7.842   5.458   3.762
  117POPS  H10X13149   7.856   5.494   3.864
  117POPS  H10Y13150   7.929   5.392   3.741
  117POPS  C31113151   7.714   5.368   3.770
  117POPS  H11X13152   7.738   5.277   3.829
  117POPS  H11Y13153   7.692   5.334   3.667
  117POPS  C31213154   7.585   5.429   3.834
  117POPS  H12X13155   7.498   5.382   3.783
  117POPS  H12Y13156   7.580   5.537   3.812
  117POPS  C31313157   7.561   5.402   3.985
  117POPS  H13X13158   7.652   5.426   4.043
  117POPS  H13Y13159   7.542   5.293   4.001
  117POPS  C31413160   7.444   5.482   4.047
  117POPS  H14X13161   7.454   5.590   4.021
  117POPS  H14Y13162   7.452   5.475   4.158
  117POPS  C31513163   7.305   5.429   4.007
  117POPS  H15X13164   7.295   5.326   4.048
  117POPS  H15Y13165   7.299   5.423   3.896
  117POPS  C31613166   7.187   5.514   4.057
  117POPS  H16X13167   7.215   5.571   4.148
  117POPS  H16Y13168   7.100   5.449   4.083
  117POPS  H16Z13169   7.156   5.586   3.979
  118POPS     N13170   5.464   7.733   2.212
  118POPS   HN113171   5.446   7.824   2.163
  118POPS   HN213172   5.463   7.748   2.316
  118POPS   HN313173   5.553   7.686   2.188
  118POPS   C1213174   5.346   7.643   2.194
  118POPS  H12A13175   5.382   7.541   2.197
  118POPS   C1313176   5.257   7.665   2.067
  118POPS  O13A13177   5.286   7.758   1.987
  118POPS  O13B13178   5.157   7.590   2.050
  118POPS   C1113179   5.260   7.670   2.319
  118POPS  H11A13180   5.190   7.585   2.336
  118POPS  H11B13181   5.197   7.759   2.289
  118POPS     P13182   5.298   7.813   2.535
  118POPS   O1313183   5.378   7.931   2.498
  118POPS   O1413184   5.304   7.768   2.676
  118POPS   O1213185   5.340   7.694   2.438
  118POPS   O1113186   5.149   7.834   2.491
  118POPS    C113187   5.048   7.738   2.524
  118POPS    HA13188   5.089   7.641   2.560
  118POPS    HB13189   4.988   7.716   2.433
  118POPS    C213190   4.954   7.795   2.630
  118POPS    HS13191   4.904   7.886   2.586
  118POPS   O2113192   5.022   7.828   2.749
  118POPS   C2113193   5.078   7.948   2.753
  118POPS   O2213194   5.082   8.032   2.665
  118POPS   C2213195   5.116   7.971   2.897
  118POPS   H2R13196   5.183   8.059   2.902
  118POPS   H2S13197   5.170   7.882   2.935
  118POPS    C313198   4.842   7.694   2.663
  118POPS    HX13199   4.799   7.665   2.565
  118POPS    HY13200   4.765   7.753   2.719
  118POPS   O3113201   4.882   7.572   2.730
  118POPS   C3113202   4.813   7.546   2.841
  118POPS   O3213203   4.756   7.627   2.912
  118POPS   C3213204   4.810   7.393   2.865
  118POPS   H2X13205   4.883   7.346   2.796
  118POPS   H2Y13206   4.708   7.359   2.837
  118POPS   C2313207   4.983   7.997   2.969
  118POPS   H3R13208   4.902   8.026   2.899
  118POPS   H3S13209   5.002   8.083   3.035
  118POPS   C2413210   4.926   7.878   3.046
  118POPS   H4R13211   4.908   7.796   2.974
  118POPS   H4S13212   4.827   7.904   3.089
  118POPS   C2513213   5.017   7.826   3.156
  118POPS   H5R13214   5.105   7.778   3.107
  118POPS   H5S13215   4.957   7.745   3.203
  118POPS   C2613216   5.062   7.927   3.262
  118POPS   H6R13217   4.977   7.941   3.333
  118POPS   H6S13218   5.082   8.025   3.215
  118POPS   C2713219   5.188   7.888   3.341
  118POPS   H7R13220   5.172   7.789   3.390
  118POPS   H7S13221   5.202   7.962   3.423
  118POPS   C2813222   5.317   7.887   3.255
  118POPS   H8R13223   5.352   7.992   3.244
  118POPS   H8S13224   5.292   7.852   3.153
  118POPS   C2913225   5.429   7.799   3.307
  118POPS   H9113226   5.458   7.717   3.239
  118POPS  C21013227   5.496   7.815   3.421
  118POPS  H10113228   5.582   7.750   3.442
  118POPS  C21113229   5.475   7.925   3.521
  118POPS  H11R13230   5.422   8.010   3.472
  118POPS  H11S13231   5.573   7.963   3.556
  118POPS  C21213232   5.391   7.892   3.646
  118POPS  H12R13233   5.296   7.846   3.612
  118POPS  H12S13234   5.366   7.987   3.698
  118POPS  C21313235   5.461   7.803   3.750
  118POPS  H13R13236   5.570   7.820   3.740
  118POPS  H13S13237   5.438   7.697   3.725
  118POPS  C21413238   5.429   7.828   3.899
  118POPS  H14R13239   5.324   7.810   3.927
  118POPS  H14S13240   5.451   7.932   3.928
  118POPS  C21513241   5.512   7.733   3.985
  118POPS  H15R13242   5.607   7.786   4.009
  118POPS  H15S13243   5.536   7.641   3.927
  118POPS  C21613244   5.444   7.687   4.113
  118POPS  H16R13245   5.381   7.597   4.094
  118POPS  H16S13246   5.374   7.763   4.151
  118POPS  C21713247   5.553   7.658   4.216
  118POPS  H17R13248   5.510   7.613   4.307
  118POPS  H17S13249   5.598   7.756   4.246
  118POPS  C21813250   5.668   7.572   4.166
  118POPS  H18R13251   5.721   7.526   4.251
  118POPS  H18S13252   5.738   7.631   4.104
  118POPS  H18T13253   5.635   7.485   4.108
  118POPS   C3313254   4.839   7.356   3.014
  118POPS   H3X13255   4.754   7.386   3.078
  118POPS   H3Y13256   4.927   7.418   3.043
  118POPS   C3413257   4.878   7.209   3.039
  118POPS   H4X13258   4.941   7.181   2.951
  118POPS   H4Y13259   4.789   7.143   3.039
  118POPS   C3513260   4.970   7.186   3.162
  118POPS   H5X13261   5.037   7.273   3.165
  118POPS   H5Y13262   5.034   7.097   3.144
  118POPS   C3613263   4.915   7.181   3.307
  118POPS   H6X13264   4.867   7.083   3.324
  118POPS   H6Y13265   4.836   7.255   3.313
  118POPS   C3713266   5.029   7.202   3.414
  118POPS   H7X13267   5.120   7.225   3.357
  118POPS   H7Y13268   5.046   7.099   3.451
  118POPS   C3813269   5.016   7.289   3.547
  118POPS   H8X13270   4.999   7.214   3.628
  118POPS   H8Y13271   4.926   7.351   3.544
  118POPS   C3913272   5.128   7.384   3.606
  118POPS   H9X13273   5.155   7.473   3.546
  118POPS   H9Y13274   5.224   7.329   3.613
  118POPS  C31013275   5.089   7.444   3.746
  118POPS  H10X13276   5.171   7.427   3.818
  118POPS  H10Y13277   5.002   7.382   3.775
  118POPS  C31113278   5.034   7.590   3.758
  118POPS  H11X13279   4.935   7.585   3.808
  118POPS  H11Y13280   5.018   7.633   3.657
  118POPS  C31213281   5.118   7.690   3.841
  118POPS  H12X13282   5.224   7.660   3.824
  118POPS  H12Y13283   5.101   7.681   3.950
  118POPS  C31313284   5.102   7.838   3.794
  118POPS  H13X13285   5.058   7.842   3.692
  118POPS  H13Y13286   5.204   7.875   3.783
  118POPS  C31413287   5.050   7.956   3.881
  118POPS  H14X13288   4.941   7.968   3.870
  118POPS  H14Y13289   5.097   8.046   3.833
  118POPS  C31513290   5.092   7.968   4.028
  118POPS  H15X13291   5.087   8.077   4.053
  118POPS  H15Y13292   5.197   7.936   4.046
  118POPS  C31613293   4.997   7.899   4.123
  118POPS  H16X13294   5.031   7.908   4.227
  118POPS  H16Y13295   4.988   7.791   4.100
  118POPS  H16Z13296   4.896   7.945   4.117
  119POPS     N13297   0.062   6.763   2.321
  119POPS   HN113298   0.002   6.683   2.348
  119POPS   HN213299   0.087   6.763   2.220
  119POPS   HN313300   0.153   6.766   2.373
  119POPS   C1213301  -0.014   6.889   2.342
  119POPS  H12A13302   0.010   6.928   2.440
  119POPS   C1313303  -0.165   6.864   2.337
  119POPS  O13A13304  -0.207   6.745   2.325
  119POPS  O13B13305  -0.239   6.965   2.345
  119POPS   C1113306   0.030   6.991   2.232
  119POPS  H11A13307   0.013   7.095   2.268
  119POPS  H11B13308  -0.039   6.979   2.146
  119POPS     P13309   0.290   6.993   2.283
  119POPS   O1313310   0.404   7.051   2.211
  119POPS   O1413311   0.308   6.863   2.355
  119POPS   O1213312   0.165   6.972   2.187
  119POPS   O1113313   0.228   7.100   2.376
  119POPS    C113314   0.301   7.154   2.483
  119POPS    HA13315   0.284   7.264   2.480
  119POPS    HB13316   0.411   7.144   2.469
  119POPS    C213317   0.251   7.089   2.615
  119POPS    HS13318   0.337   7.085   2.684
  119POPS   O2113319   0.185   6.958   2.595
  119POPS   C2113320   0.172   6.885   2.707
  119POPS   O2213321   0.213   6.921   2.814
  119POPS   C2213322   0.097   6.752   2.693
  119POPS   H2R13323   0.171   6.674   2.667
  119POPS   H2S13324   0.024   6.761   2.610
  119POPS    C313325   0.156   7.192   2.675
  119POPS    HX13326   0.059   7.189   2.620
  119POPS    HY13327   0.197   7.294   2.654
  119POPS   O3113328   0.149   7.183   2.820
  119POPS   C3113329   0.041   7.121   2.862
  119POPS   O3213330  -0.046   7.076   2.789
  119POPS   C3213331   0.032   7.120   3.012
  119POPS   H2X13332   0.025   7.225   3.048
  119POPS   H2Y13333   0.125   7.076   3.052
  119POPS   C2313334   0.019   6.712   2.824
  119POPS   H3R13335  -0.037   6.618   2.803
  119POPS   H3S13336  -0.056   6.791   2.845
  119POPS   C2413337   0.104   6.689   2.954
  119POPS   H4R13338   0.164   6.779   2.976
  119POPS   H4S13339   0.174   6.607   2.934
  119POPS   C2513340   0.027   6.660   3.085
  119POPS   H5R13341   0.015   6.550   3.095
  119POPS   H5S13342  -0.075   6.701   3.075
  119POPS   C2613343   0.090   6.713   3.218
  119POPS   H6R13344   0.184   6.660   3.239
  119POPS   H6S13345   0.020   6.687   3.300
  119POPS   C2713346   0.121   6.865   3.230
  119POPS   H7R13347   0.026   6.917   3.218
  119POPS   H7S13348   0.189   6.897   3.149
  119POPS   C2813349   0.173   6.914   3.368
  119POPS   H8R13350   0.281   6.890   3.368
  119POPS   H8S13351   0.125   6.851   3.446
  119POPS   C2913352   0.156   7.062   3.402
  119POPS   H9113353   0.214   7.131   3.339
  119POPS  C21013354   0.079   7.116   3.499
  119POPS  H10113355   0.078   7.225   3.512
  119POPS  C21113356  -0.010   7.042   3.597
  119POPS  H11R13357  -0.031   6.938   3.562
  119POPS  H11S13358  -0.108   7.091   3.604
  119POPS  C21213359   0.027   7.037   3.746
  119POPS  H12R13360   0.123   6.982   3.760
  119POPS  H12S13361  -0.053   6.979   3.797
  119POPS  C21313362   0.032   7.175   3.815
  119POPS  H13R13363  -0.065   7.228   3.803
  119POPS  H13S13364   0.111   7.238   3.768
  119POPS  C21413365   0.062   7.154   3.964
  119POPS  H14R13366   0.158   7.100   3.967
  119POPS  H14S13367  -0.018   7.092   4.008
  119POPS  C21513368   0.066   7.282   4.047
  119POPS  H15R13369  -0.039   7.310   4.071
  119POPS  H15S13370   0.112   7.360   3.983
  119POPS  C21613371   0.145   7.274   4.178
  119POPS  H16R13372   0.088   7.220   4.256
  119POPS  H16S13373   0.162   7.379   4.214
  119POPS  C21713374   0.281   7.207   4.161
  119POPS  H17R13375   0.318   7.226   4.058
  119POPS  H17S13376   0.268   7.098   4.175
  119POPS  C21813377   0.387   7.250   4.260
  119POPS  H18R13378   0.457   7.319   4.209
  119POPS  H18S13379   0.450   7.165   4.292
  119POPS  H18T13380   0.344   7.301   4.348
  119POPS   C3313381  -0.093   7.038   3.046
  119POPS   H3X13382  -0.068   6.930   3.042
  119POPS   H3Y13383  -0.177   7.052   2.973
  119POPS   C3413384  -0.157   7.081   3.176
  119POPS   H4X13385  -0.191   7.184   3.151
  119POPS   H4Y13386  -0.083   7.088   3.259
  119POPS   C3513387  -0.277   6.995   3.219
  119POPS   H5X13388  -0.357   7.018   3.146
  119POPS   H5Y13389  -0.311   7.027   3.319
  119POPS   C3613390  -0.246   6.844   3.217
  119POPS   H6X13391  -0.145   6.832   3.262
  119POPS   H6Y13392  -0.243   6.812   3.111
  119POPS   C3713393  -0.335   6.746   3.296
  119POPS   H7X13394  -0.292   6.644   3.283
  119POPS   H7Y13395  -0.436   6.744   3.251
  119POPS   C3813396  -0.345   6.775   3.446
  119POPS   H8X13397  -0.442   6.732   3.481
  119POPS   H8Y13398  -0.348   6.884   3.466
  119POPS   C3913399  -0.234   6.712   3.531
  119POPS   H9X13400  -0.135   6.755   3.503
  119POPS   H9Y13401  -0.230   6.603   3.513
  119POPS  C31013402  -0.267   6.738   3.678
  119POPS  H10X13403  -0.360   6.683   3.704
  119POPS  H10Y13404  -0.287   6.847   3.690
  119POPS  C31113405  -0.158   6.701   3.779
  119POPS  H11X13406  -0.066   6.760   3.759
  119POPS  H11Y13407  -0.131   6.593   3.770
  119POPS  C31213408  -0.212   6.729   3.919
  119POPS  H12X13409  -0.302   6.666   3.936
  119POPS  H12Y13410  -0.246   6.835   3.925
  119POPS  C31313411  -0.111   6.704   4.031
  119POPS  H13X13412  -0.067   6.603   4.020
  119POPS  H13Y13413  -0.163   6.709   4.130
  119POPS  C31413414   0.002   6.805   4.030
  119POPS  H14X13415  -0.045   6.905   4.030
  119POPS  H14Y13416   0.060   6.794   3.935
  119POPS  C31513417   0.095   6.790   4.149
  119POPS  H15X13418   0.099   6.683   4.180
  119POPS  H15Y13419   0.053   6.848   4.235
  119POPS  C31613420   0.236   6.838   4.117
  119POPS  H16X13421   0.300   6.836   4.208
  119POPS  H16Y13422   0.230   6.940   4.077
  119POPS  H16Z13423   0.284   6.778   4.038
  120POPS     N13424   0.029   0.435   2.289
  120POPS   HN113425   0.088   0.353   2.316
  120POPS   HN213426  -0.014   0.478   2.376
  120POPS   HN313427  -0.044   0.408   2.220
  120POPS   C1213428   0.112   0.543   2.228
  120POPS  H12A13429   0.044   0.622   2.201
  120POPS   C1313430   0.186   0.501   2.099
  120POPS  O13A13431   0.193   0.380   2.064
  120POPS  O13B13432   0.237   0.594   2.031
  120POPS   C1113433   0.220   0.600   2.326
  120POPS  H11A13434   0.279   0.675   2.269
  120POPS  H11B13435   0.290   0.520   2.358
  120POPS     P13436   0.105   0.595   2.562
  120POPS   O1313437  -0.028   0.547   2.521
  120POPS   O1413438   0.116   0.684   2.679
  120POPS   O1213439   0.165   0.670   2.438
  120POPS   O1113440   0.199   0.466   2.575
  120POPS    C113441   0.314   0.465   2.663
  120POPS    HA13442   0.321   0.556   2.727
  120POPS    HB13443   0.406   0.459   2.602
  120POPS    C213444   0.308   0.345   2.761
  120POPS    HS13445   0.286   0.254   2.701
  120POPS   O2113446   0.201   0.375   2.852
  120POPS   C2113447   0.157   0.271   2.917
  120POPS   O2213448   0.206   0.159   2.914
  120POPS   C2213449   0.027   0.304   2.988
  120POPS   H2R13450  -0.002   0.215   3.048
  120POPS   H2S13451  -0.047   0.324   2.909
  120POPS    C313452   0.443   0.320   2.836
  120POPS    HX13453   0.519   0.291   2.760
  120POPS    HY13454   0.436   0.235   2.907
  120POPS   O3113455   0.488   0.441   2.899
  120POPS   C3113456   0.448   0.463   3.023
  120POPS   O3213457   0.411   0.381   3.104
  120POPS   C3213458   0.453   0.615   3.044
  120POPS   H2X13459   0.445   0.665   2.945
  120POPS   H2Y13460   0.551   0.640   3.087
  120POPS   C2313461   0.030   0.428   3.079
  120POPS   H3R13462  -0.074   0.465   3.093
  120POPS   H3S13463   0.086   0.510   3.030
  120POPS   C2413464   0.085   0.394   3.217
  120POPS   H4R13465   0.189   0.355   3.209
  120POPS   H4S13466   0.022   0.314   3.261
  120POPS   C2513467   0.083   0.515   3.311
  120POPS   H5R13468  -0.021   0.535   3.343
  120POPS   H5S13469   0.116   0.605   3.257
  120POPS   C2613470   0.172   0.494   3.433
  120POPS   H6R13471   0.158   0.584   3.496
  120POPS   H6S13472   0.279   0.487   3.403
  120POPS   C2713473   0.139   0.369   3.515
  120POPS   H7R13474   0.198   0.372   3.608
  120POPS   H7S13475   0.173   0.279   3.460
  120POPS   C2813476  -0.011   0.355   3.545
  120POPS   H8R13477  -0.026   0.258   3.596
  120POPS   H8S13478  -0.071   0.347   3.452
  120POPS   C2913479  -0.061   0.473   3.626
  120POPS   H9113480  -0.075   0.567   3.571
  120POPS  C21013481  -0.085   0.469   3.757
  120POPS  H10113482  -0.119   0.561   3.809
  120POPS  C21113483  -0.066   0.347   3.844
  120POPS  H11R13484  -0.082   0.251   3.791
  120POPS  H11S13485  -0.131   0.345   3.934
  120POPS  C21213486   0.078   0.359   3.888
  120POPS  H12R13487   0.089   0.452   3.949
  120POPS  H12S13488   0.145   0.365   3.800
  120POPS  C21313489   0.130   0.244   3.972
  120POPS  H13R13490   0.092   0.148   3.935
  120POPS  H13S13491   0.085   0.261   4.072
  120POPS  C21413492   0.283   0.245   3.973
  120POPS  H14R13493   0.317   0.241   3.867
  120POPS  H14S13494   0.323   0.154   4.022
  120POPS  C21513495   0.339   0.372   4.038
  120POPS  H15R13496   0.290   0.460   3.995
  120POPS  H15S13497   0.447   0.380   4.016
  120POPS  C21613498   0.313   0.378   4.188
  120POPS  H16R13499   0.347   0.282   4.229
  120POPS  H16S13500   0.205   0.392   4.210
  120POPS  C21713501   0.398   0.476   4.267
  120POPS  H17R13502   0.351   0.490   4.367
  120POPS  H17S13503   0.402   0.575   4.218
  120POPS  C21813504   0.535   0.413   4.285
  120POPS  H18R13505   0.599   0.476   4.349
  120POPS  H18S13506   0.585   0.394   4.189
  120POPS  H18T13507   0.525   0.312   4.329
  120POPS   C3313508   0.335   0.658   3.133
  120POPS   H3X13509   0.344   0.606   3.231
  120POPS   H3Y13510   0.242   0.623   3.084
  120POPS   C3413511   0.318   0.809   3.155
  120POPS   H4X13512   0.237   0.823   3.230
  120POPS   H4Y13513   0.285   0.856   3.060
  120POPS   C3513514   0.444   0.879   3.205
  120POPS   H5X13515   0.421   0.982   3.236
  120POPS   H5Y13516   0.515   0.887   3.119
  120POPS   C3613517   0.517   0.805   3.318
  120POPS   H6X13518   0.601   0.870   3.347
  120POPS   H6Y13519   0.556   0.709   3.279
  120POPS   C3713520   0.441   0.766   3.443
  120POPS   H7X13521   0.407   0.661   3.432
  120POPS   H7Y13522   0.352   0.829   3.457
  120POPS   C3813523   0.533   0.775   3.566
  120POPS   H8X13524   0.588   0.872   3.564
  120POPS   H8Y13525   0.609   0.694   3.560
  120POPS   C3913526   0.456   0.765   3.697
  120POPS   H9X13527   0.397   0.857   3.711
  120POPS   H9Y13528   0.525   0.759   3.781
  120POPS  C31013529   0.363   0.646   3.702
  120POPS  H10X13530   0.423   0.552   3.702
  120POPS  H10Y13531   0.298   0.645   3.613
  120POPS  C31113532   0.272   0.647   3.825
  120POPS  H11X13533   0.338   0.631   3.913
  120POPS  H11Y13534   0.203   0.561   3.813
  120POPS  C31213535   0.186   0.771   3.851
  120POPS  H12X13536   0.126   0.792   3.759
  120POPS  H12Y13537   0.252   0.858   3.872
  120POPS  C31313538   0.091   0.751   3.970
  120POPS  H13X13539   0.031   0.659   3.954
  120POPS  H13Y13540   0.020   0.836   3.976
  120POPS  C31413541   0.166   0.740   4.104
  120POPS  H14X13542   0.218   0.836   4.124
  120POPS  H14Y13543   0.244   0.661   4.097
  120POPS  C31513544   0.075   0.704   4.223
  120POPS  H15X13545   0.042   0.598   4.213
  120POPS  H15Y13546  -0.016   0.766   4.217
  120POPS  C31613547   0.141   0.725   4.359
  120POPS  H16X13548   0.221   0.650   4.377
  120POPS  H16Y13549   0.066   0.716   4.440
  120POPS  H16Z13550   0.187   0.826   4.365
  121POPC     N13551   4.437   3.123   6.347
  121POPC   C1213552   4.389   3.189   6.218
  121POPC  H12A13553   4.288   3.223   6.230
  121POPC  H12B13554   4.390   3.115   6.139
  121POPC   C1313555   4.569   3.056   6.321
  121POPC  H13A13556   4.627   3.119   6.253
  121POPC  H13B13557   4.625   3.042   6.413
  121POPC  H13C13558   4.557   2.959   6.274
  121POPC   C1413559   4.460   3.227   6.453
  121POPC  H14A13560   4.536   3.296   6.418
  121POPC  H14B13561   4.371   3.285   6.477
  121POPC  H14C13562   4.496   3.180   6.544
  121POPC   C1513563   4.344   3.019   6.400
  121POPC  H15A13564   4.337   2.931   6.337
  121POPC  H15B13565   4.246   3.059   6.422
  121POPC  H15C13566   4.385   2.983   6.495
  121POPC   C1113567   4.471   3.306   6.156
  121POPC  H11A13568   4.477   3.390   6.228
  121POPC  H11B13569   4.414   3.344   6.067
  121POPC     P13570   4.643   3.225   5.972
  121POPC   O1313571   4.769   3.150   5.976
  121POPC   O1413572   4.635   3.348   5.892
  121POPC   O1213573   4.602   3.263   6.121
  121POPC   O1113574   4.528   3.130   5.925
  121POPC    C113575   4.510   2.993   5.958
  121POPC    HA13576   4.519   2.978   6.068
  121POPC    HB13577   4.588   2.930   5.909
  121POPC    C213578   4.369   2.946   5.912
  121POPC    HS13579   4.352   2.843   5.953
  121POPC   O2113580   4.358   2.951   5.769
  121POPC   C2113581   4.389   2.841   5.706
  121POPC   O2213582   4.399   2.731   5.758
  121POPC   C2213583   4.407   2.877   5.560
  121POPC   H2R13584   4.434   2.985   5.554
  121POPC   H2S13585   4.312   2.859   5.506
  121POPC    C313586   4.255   3.035   5.962
  121POPC    HX13587   4.249   3.034   6.072
  121POPC    HY13588   4.162   2.987   5.922
  121POPC   O3113589   4.273   3.168   5.910
  121POPC   C3113590   4.160   3.233   5.893
  121POPC   O3213591   4.056   3.199   5.948
  121POPC   C3213592   4.181   3.350   5.795
  121POPC   H2X13593   4.289   3.374   5.786
  121POPC   H2Y13594   4.129   3.437   5.841
  121POPC   C2313595   4.517   2.797   5.491
  121POPC   H3R13596   4.519   2.824   5.383
  121POPC   H3S13597   4.495   2.688   5.498
  121POPC   C2413598   4.654   2.830   5.552
  121POPC   H4R13599   4.725   2.747   5.542
  121POPC   H4S13600   4.643   2.845   5.662
  121POPC   C2513601   4.713   2.956   5.487
  121POPC   H5R13602   4.633   3.008   5.429
  121POPC   H5S13603   4.792   2.929   5.414
  121POPC   C2613604   4.766   3.050   5.594
  121POPC   H6R13605   4.868   3.016   5.621
  121POPC   H6S13606   4.704   3.043   5.686
  121POPC   C2713607   4.769   3.197   5.553
  121POPC   H7R13608   4.832   3.208   5.462
  121POPC   H7S13609   4.818   3.251   5.637
  121POPC   C2813610   4.632   3.266   5.534
  121POPC   H8R13611   4.576   3.265   5.630
  121POPC   H8S13612   4.570   3.214   5.458
  121POPC   C2913613   4.667   3.408   5.494
  121POPC   H9113614   4.679   3.478   5.579
  121POPC  C21013615   4.682   3.452   5.369
  121POPC  H10113616   4.708   3.558   5.354
  121POPC  C21113617   4.667   3.372   5.242
  121POPC  H11R13618   4.645   3.264   5.261
  121POPC  H11S13619   4.758   3.376   5.178
  121POPC  C21213620   4.548   3.437   5.170
  121POPC  H12R13621   4.575   3.541   5.140
  121POPC  H12S13622   4.463   3.441   5.243
  121POPC  C21313623   4.492   3.367   5.048
  121POPC  H13R13624   4.382   3.381   5.045
  121POPC  H13S13625   4.511   3.259   5.058
  121POPC  C21413626   4.550   3.414   4.915
  121POPC  H14R13627   4.656   3.379   4.909
  121POPC  H14S13628   4.550   3.524   4.908
  121POPC  C21513629   4.469   3.355   4.801
  121POPC  H15R13630   4.368   3.401   4.796
  121POPC  H15S13631   4.453   3.246   4.823
  121POPC  C21613632   4.541   3.369   4.667
  121POPC  H16R13633   4.647   3.335   4.683
  121POPC  H16S13634   4.544   3.475   4.635
  121POPC  C21713635   4.479   3.279   4.562
  121POPC  H17R13636   4.428   3.197   4.617
  121POPC  H17S13637   4.560   3.236   4.499
  121POPC  C21813638   4.376   3.342   4.470
  121POPC  H18R13639   4.426   3.417   4.404
  121POPC  H18S13640   4.295   3.393   4.527
  121POPC  H18T13641   4.329   3.265   4.405
  121POPC   C3313642   4.118   3.329   5.654
  121POPC   H3X13643   4.082   3.424   5.614
  121POPC   H3Y13644   4.021   3.283   5.671
  121POPC   C3413645   4.208   3.264   5.544
  121POPC   H4X13646   4.231   3.159   5.571
  121POPC   H4Y13647   4.305   3.319   5.538
  121POPC   C3513648   4.141   3.269   5.404
  121POPC   H5X13649   4.116   3.374   5.380
  121POPC   H5Y13650   4.043   3.218   5.413
  121POPC   C3613651   4.217   3.206   5.284
  121POPC   H6X13652   4.299   3.273   5.252
  121POPC   H6Y13653   4.145   3.199   5.199
  121POPC   C3713654   4.276   3.067   5.309
  121POPC   H7X13655   4.208   3.012   5.375
  121POPC   H7Y13656   4.373   3.077   5.362
  121POPC   C3813657   4.294   2.979   5.183
  121POPC   H8X13658   4.198   2.970   5.127
  121POPC   H8Y13659   4.321   2.877   5.218
  121POPC   C3913660   4.405   3.031   5.093
  121POPC   H9X13661   4.459   3.105   5.156
  121POPC   H9Y13662   4.365   3.082   5.003
  121POPC  C31013663   4.510   2.926   5.053
  121POPC  H10X13664   4.491   2.895   4.948
  121POPC  H10Y13665   4.496   2.835   5.115
  121POPC  C31113666   4.656   2.973   5.072
  121POPC  H11X13667   4.722   2.884   5.073
  121POPC  H11Y13668   4.664   3.020   5.173
  121POPC  C31213669   4.708   3.070   4.966
  121POPC  H12X13670   4.798   3.122   5.007
  121POPC  H12Y13671   4.633   3.148   4.942
  121POPC  C31313672   4.747   3.001   4.834
  121POPC  H13X13673   4.807   2.909   4.853
  121POPC  H13Y13674   4.814   3.072   4.779
  121POPC  C31413675   4.626   2.971   4.744
  121POPC  H14X13676   4.550   3.051   4.758
  121POPC  H14Y13677   4.579   2.874   4.772
  121POPC  C31513678   4.662   2.965   4.596
  121POPC  H15X13679   4.727   2.876   4.580
  121POPC  H15Y13680   4.721   3.057   4.574
  121POPC  C31613681   4.543   2.959   4.500
  121POPC  H16X13682   4.575   2.981   4.396
  121POPC  H16Y13683   4.463   3.030   4.527
  121POPC  H16Z13684   4.495   2.859   4.501
  122POPC     N13685   2.991   2.706   6.134
  122POPC   C1213686   3.052   2.613   6.238
  122POPC  H12A13687   2.993   2.521   6.236
  122POPC  H12B13688   3.040   2.659   6.336
  122POPC   C1313689   3.017   2.657   5.995
  122POPC  H13A13690   3.015   2.549   5.992
  122POPC  H13B13691   2.941   2.695   5.927
  122POPC  H13C13692   3.115   2.691   5.962
  122POPC   C1413693   2.843   2.706   6.149
  122POPC  H14A13694   2.804   2.605   6.139
  122POPC  H14B13695   2.808   2.752   6.239
  122POPC  H14C13696   2.795   2.762   6.068
  122POPC   C1513697   3.048   2.845   6.145
  122POPC  H15A13698   3.156   2.842   6.129
  122POPC  H15B13699   3.031   2.888   6.243
  122POPC  H15C13700   3.004   2.912   6.072
  122POPC   C1113701   3.200   2.573   6.223
  122POPC  H11A13702   3.222   2.556   6.115
  122POPC  H11B13703   3.217   2.476   6.275
  122POPC     P13704   3.434   2.678   6.224
  122POPC   O1313705   3.481   2.540   6.201
  122POPC   O1413706   3.517   2.759   6.316
  122POPC   O1213707   3.286   2.671   6.283
  122POPC   O1113708   3.407   2.756   6.090
  122POPC    C113709   3.444   2.720   5.957
  122POPC    HA13710   3.404   2.621   5.926
  122POPC    HB13711   3.555   2.717   5.949
  122POPC    C213712   3.390   2.831   5.861
  122POPC    HS13713   3.435   2.925   5.903
  122POPC   O2113714   3.245   2.838   5.855
  122POPC   C2113715   3.205   2.964   5.825
  122POPC   O2213716   3.258   3.066   5.866
  122POPC   C2213717   3.094   2.955   5.719
  122POPC   H2R13718   3.005   2.915   5.771
  122POPC   H2S13719   3.129   2.880   5.645
  122POPC    C313720   3.440   2.820   5.713
  122POPC    HX13721   3.548   2.846   5.713
  122POPC    HY13722   3.385   2.903   5.661
  122POPC   O3113723   3.416   2.694   5.643
  122POPC   C3113724   3.452   2.719   5.513
  122POPC   O3213725   3.501   2.825   5.479
  122POPC   C3213726   3.426   2.606   5.414
  122POPC   H2X13727   3.335   2.637   5.357
  122POPC   H2Y13728   3.405   2.512   5.467
  122POPC   C2313729   3.056   3.087   5.647
  122POPC   H3R13730   3.084   3.175   5.710
  122POPC   H3S13731   2.946   3.090   5.633
  122POPC   C2413732   3.119   3.104   5.507
  122POPC   H4R13733   3.223   3.065   5.508
  122POPC   H4S13734   3.124   3.214   5.486
  122POPC   C2513735   3.045   3.041   5.387
  122POPC   H5R13736   3.093   3.079   5.294
  122POPC   H5S13737   2.939   3.075   5.386
  122POPC   C2613738   3.051   2.887   5.384
  122POPC   H6R13739   3.003   2.848   5.476
  122POPC   H6S13740   3.157   2.856   5.385
  122POPC   C2713741   2.979   2.822   5.264
  122POPC   H7R13742   2.872   2.851   5.266
  122POPC   H7S13743   2.983   2.712   5.279
  122POPC   C2813744   3.037   2.854   5.124
  122POPC   H8R13745   3.018   2.962   5.102
  122POPC   H8S13746   2.978   2.796   5.049
  122POPC   C2913747   3.183   2.825   5.108
  122POPC   H9113748   3.249   2.913   5.110
  122POPC  C21013749   3.239   2.703   5.098
  122POPC  H10113750   3.348   2.697   5.089
  122POPC  C21113751   3.167   2.571   5.102
  122POPC  H11R13752   3.057   2.582   5.111
  122POPC  H11S13753   3.200   2.516   5.193
  122POPC  C21213754   3.195   2.480   4.981
  122POPC  H12R13755   3.162   2.377   5.006
  122POPC  H12S13756   3.302   2.470   4.958
  122POPC  C21313757   3.133   2.525   4.850
  122POPC  H13R13758   3.179   2.622   4.820
  122POPC  H13S13759   3.024   2.540   4.861
  122POPC  C21413760   3.162   2.417   4.745
  122POPC  H14R13761   3.118   2.321   4.778
  122POPC  H14S13762   3.272   2.402   4.739
  122POPC  C21513763   3.108   2.452   4.606
  122POPC  H15R13764   2.997   2.461   4.613
  122POPC  H15S13765   3.130   2.367   4.537
  122POPC  C21613766   3.166   2.582   4.549
  122POPC  H16R13767   3.129   2.668   4.609
  122POPC  H16S13768   3.126   2.595   4.446
  122POPC  C21713769   3.319   2.589   4.547
  122POPC  H17R13770   3.355   2.602   4.652
  122POPC  H17S13771   3.348   2.682   4.493
  122POPC  C21813772   3.391   2.468   4.486
  122POPC  H18R13773   3.386   2.380   4.553
  122POPC  H18S13774   3.499   2.492   4.469
  122POPC  H18T13775   3.346   2.440   4.389
  122POPC   C3313776   3.544   2.596   5.311
  122POPC   H3X13777   3.641   2.623   5.358
  122POPC   H3Y13778   3.529   2.677   5.236
  122POPC   C3413779   3.566   2.459   5.244
  122POPC   H4X13780   3.512   2.380   5.301
  122POPC   H4Y13781   3.674   2.432   5.245
  122POPC   C3513782   3.519   2.455   5.097
  122POPC   H5X13783   3.412   2.474   5.110
  122POPC   H5Y13784   3.533   2.354   5.053
  122POPC   C3613785   3.582   2.562   5.004
  122POPC   H6X13786   3.693   2.555   5.012
  122POPC   H6Y13787   3.554   2.663   5.038
  122POPC   C3713788   3.543   2.555   4.855
  122POPC   H7X13789   3.434   2.565   4.843
  122POPC   H7Y13790   3.572   2.456   4.813
  122POPC   C3813791   3.607   2.668   4.773
  122POPC   H8X13792   3.600   2.647   4.664
  122POPC   H8Y13793   3.713   2.681   4.801
  122POPC   C3913794   3.556   2.806   4.808
  122POPC   H9X13795   3.612   2.839   4.897
  122POPC   H9Y13796   3.449   2.799   4.836
  122POPC  C31013797   3.579   2.908   4.699
  122POPC  H10X13798   3.560   2.862   4.600
  122POPC  H10Y13799   3.684   2.944   4.698
  122POPC  C31113800   3.480   3.022   4.719
  122POPC  H11X13801   3.522   3.117   4.680
  122POPC  H11Y13802   3.460   3.037   4.827
  122POPC  C31213803   3.351   2.983   4.647
  122POPC  H12X13804   3.322   2.880   4.677
  122POPC  H12Y13805   3.373   2.980   4.539
  122POPC  C31313806   3.232   3.074   4.674
  122POPC  H13X13807   3.252   3.178   4.640
  122POPC  H13Y13808   3.212   3.077   4.784
  122POPC  C31413809   3.110   3.017   4.603
  122POPC  H14X13810   3.022   3.082   4.624
  122POPC  H14Y13811   3.092   2.916   4.647
  122POPC  C31513812   3.126   2.999   4.452
  122POPC  H15X13813   3.203   2.923   4.431
  122POPC  H15Y13814   3.160   3.096   4.408
  122POPC  C31613815   2.996   2.955   4.384
  122POPC  H16X13816   2.910   3.014   4.423
  122POPC  H16Y13817   2.977   2.848   4.404
  122POPC  H16Z13818   3.003   2.970   4.274
  123POPC     N13819   3.952   2.723   6.104
  123POPC   C1213820   4.096   2.676   6.129
  123POPC  H12A13821   4.161   2.762   6.133
  123POPC  H12B13822   4.128   2.616   6.044
  123POPC   C1313823   3.871   2.609   6.051
  123POPC  H13A13824   3.903   2.578   5.952
  123POPC  H13B13825   3.888   2.525   6.119
  123POPC  H13C13826   3.765   2.630   6.051
  123POPC   C1413827   3.887   2.758   6.232
  123POPC  H14A13828   3.882   2.668   6.295
  123POPC  H14B13829   3.938   2.832   6.292
  123POPC  H14C13830   3.783   2.790   6.222
  123POPC   C1513831   3.944   2.835   6.006
  123POPC  H15A13832   3.841   2.853   5.976
  123POPC  H15B13833   3.993   2.808   5.912
  123POPC  H15C13834   3.985   2.927   6.043
  123POPC   C1113835   4.128   2.591   6.257
  123POPC  H11A13836   4.116   2.657   6.346
  123POPC  H11B13837   4.237   2.564   6.252
  123POPC     P13838   4.097   2.331   6.319
  123POPC   O1313839   3.988   2.263   6.394
  123POPC   O1413840   4.228   2.335   6.388
  123POPC   O1213841   4.045   2.477   6.270
  123POPC   O1113842   4.112   2.256   6.182
  123POPC    C113843   4.023   2.281   6.073
  123POPC    HA13844   3.982   2.384   6.071
  123POPC    HB13845   3.936   2.212   6.084
  123POPC    C213846   4.099   2.257   5.941
  123POPC    HS13847   4.203   2.232   5.973
  123POPC   O2113848   4.097   2.371   5.849
  123POPC   C2113849   4.200   2.358   5.762
  123POPC   O2213850   4.304   2.302   5.789
  123POPC   C2213851   4.162   2.410   5.624
  123POPC   H2R13852   4.184   2.518   5.617
  123POPC   H2S13853   4.053   2.392   5.617
  123POPC    C313854   4.036   2.135   5.871
  123POPC    HX13855   4.067   2.047   5.933
  123POPC    HY13856   4.080   2.124   5.769
  123POPC   O3113857   3.893   2.147   5.869
  123POPC   C3113858   3.832   2.144   5.752
  123POPC   O3213859   3.870   2.088   5.652
  123POPC   C3213860   3.719   2.244   5.760
  123POPC   H2X13861   3.688   2.259   5.865
  123POPC   H2Y13862   3.633   2.209   5.699
  123POPC   C2313863   4.218   2.329   5.505
  123POPC   H3R13864   4.306   2.268   5.533
  123POPC   H3S13865   4.250   2.399   5.424
  123POPC   C2413866   4.108   2.237   5.449
  123POPC   H4R13867   4.014   2.296   5.438
  123POPC   H4S13868   4.085   2.157   5.523
  123POPC   C2513869   4.138   2.173   5.314
  123POPC   H5R13870   4.230   2.112   5.321
  123POPC   H5S13871   4.156   2.253   5.239
  123POPC   C2613872   4.022   2.082   5.268
  123POPC   H6R13873   3.999   2.009   5.349
  123POPC   H6S13874   4.055   2.024   5.179
  123POPC   C2713875   3.892   2.156   5.230
  123POPC   H7R13876   3.861   2.223   5.313
  123POPC   H7S13877   3.810   2.084   5.215
  123POPC   C2813878   3.905   2.240   5.103
  123POPC   H8R13879   3.991   2.307   5.121
  123POPC   H8S13880   3.814   2.303   5.095
  123POPC   C2913881   3.922   2.166   4.973
  123POPC   H9113882   3.832   2.114   4.937
  123POPC  C21013883   4.033   2.158   4.897
  123POPC  H10113884   4.020   2.112   4.798
  123POPC  C21113885   4.171   2.218   4.918
  123POPC  H11R13886   4.247   2.138   4.928
  123POPC  H11S13887   4.176   2.278   5.011
  123POPC  C21213888   4.212   2.308   4.798
  123POPC  H12R13889   4.228   2.411   4.837
  123POPC  H12S13890   4.129   2.312   4.723
  123POPC  C21313891   4.338   2.271   4.722
  123POPC  H13R13892   4.342   2.163   4.713
  123POPC  H13S13893   4.427   2.305   4.780
  123POPC  C21413894   4.343   2.322   4.576
  123POPC  H14R13895   4.272   2.264   4.513
  123POPC  H14S13896   4.445   2.300   4.538
  123POPC  C21513897   4.313   2.471   4.561
  123POPC  H15R13898   4.384   2.517   4.491
  123POPC  H15S13899   4.324   2.518   4.661
  123POPC  C21613900   4.177   2.505   4.499
  123POPC  H16R13901   4.103   2.449   4.558
  123POPC  H16S13902   4.172   2.465   4.395
  123POPC  C21713903   4.148   2.657   4.497
  123POPC  H17R13904   4.045   2.676   4.535
  123POPC  H17S13905   4.150   2.691   4.391
  123POPC  C21813906   4.241   2.745   4.581
  123POPC  H18R13907   4.237   2.714   4.688
  123POPC  H18S13908   4.213   2.852   4.573
  123POPC  H18T13909   4.345   2.733   4.547
  123POPC   C3313910   3.777   2.372   5.702
  123POPC   H3X13911   3.785   2.362   5.591
  123POPC   H3Y13912   3.881   2.385   5.743
  123POPC   C3413913   3.703   2.501   5.737
  123POPC   H4X13914   3.734   2.537   5.838
  123POPC   H4Y13915   3.593   2.484   5.740
  123POPC   C3513916   3.734   2.603   5.629
  123POPC   H5X13917   3.691   2.703   5.651
  123POPC   H5Y13918   3.688   2.564   5.537
  123POPC   C3613919   3.883   2.618   5.600
  123POPC   H6X13920   3.945   2.538   5.638
  123POPC   H6Y13921   3.912   2.700   5.669
  123POPC   C3713922   3.918   2.649   5.454
  123POPC   H7X13923   4.016   2.700   5.458
  123POPC   H7Y13924   3.838   2.717   5.417
  123POPC   C3813925   3.945   2.549   5.340
  123POPC   H8X13926   3.862   2.478   5.325
  123POPC   H8Y13927   4.038   2.492   5.361
  123POPC   C3913928   3.969   2.634   5.211
  123POPC   H9X13929   4.055   2.702   5.228
  123POPC   H9Y13930   3.879   2.697   5.194
  123POPC  C31013931   3.994   2.554   5.083
  123POPC  H10X13932   3.904   2.491   5.068
  123POPC  H10Y13933   4.083   2.488   5.099
  123POPC  C31113934   4.013   2.633   4.952
  123POPC  H11X13935   4.112   2.684   4.956
  123POPC  H11Y13936   3.934   2.710   4.940
  123POPC  C31213937   4.012   2.534   4.833
  123POPC  H12X13938   4.021   2.434   4.880
  123POPC  H12Y13939   4.097   2.553   4.766
  123POPC  C31313940   3.883   2.525   4.752
  123POPC  H13X13941   3.871   2.621   4.697
  123POPC  H13Y13942   3.806   2.512   4.831
  123POPC  C31413943   3.856   2.408   4.654
  123POPC  H14X13944   3.757   2.364   4.680
  123POPC  H14Y13945   3.931   2.328   4.669
  123POPC  C31513946   3.846   2.454   4.507
  123POPC  H15X13947   3.929   2.524   4.487
  123POPC  H15Y13948   3.755   2.515   4.492
  123POPC  C31613949   3.855   2.345   4.400
  123POPC  H16X13950   3.757   2.295   4.384
  123POPC  H16Y13951   3.931   2.268   4.427
  123POPC  H16Z13952   3.887   2.390   4.303
  124POPC     N13953   5.541   2.886   6.174
  124POPC   C1213954   5.421   2.804   6.128
  124POPC  H12A13955   5.396   2.735   6.208
  124POPC  H12B13956   5.445   2.745   6.040
  124POPC   C1313957   5.509   2.959   6.301
  124POPC  H13A13958   5.594   3.014   6.341
  124POPC  H13B13959   5.430   3.032   6.282
  124POPC  H13C13960   5.469   2.895   6.377
  124POPC   C1413961   5.664   2.806   6.199
  124POPC  H14A13962   5.746   2.873   6.230
  124POPC  H14B13963   5.652   2.736   6.281
  124POPC  H14C13964   5.698   2.754   6.110
  124POPC   C1513965   5.566   2.994   6.073
  124POPC  H15A13966   5.604   2.956   5.980
  124POPC  H15B13967   5.631   3.071   6.114
  124POPC  H15C13968   5.472   3.045   6.052
  124POPC   C1113969   5.291   2.880   6.094
  124POPC  H11A13970   5.211   2.807   6.067
  124POPC  H11B13971   5.310   2.940   6.001
  124POPC     P13972   5.198   3.110   6.189
  124POPC   O1313973   5.315   3.192   6.228
  124POPC   O1413974   5.067   3.125   6.258
  124POPC   O1213975   5.244   2.958   6.204
  124POPC   O1113976   5.177   3.118   6.033
  124POPC    C113977   5.041   3.116   5.991
  124POPC    HA13978   4.990   3.208   6.028
  124POPC    HB13979   4.987   3.028   6.033
  124POPC    C213980   5.025   3.113   5.837
  124POPC    HS13981   4.921   3.082   5.814
  124POPC   O2113982   5.120   3.023   5.775
  124POPC   C2113983   5.094   2.896   5.802
  124POPC   O2213984   4.995   2.856   5.861
  124POPC   C2213985   5.198   2.805   5.739
  124POPC   H2R13986   5.220   2.727   5.815
  124POPC   H2S13987   5.292   2.859   5.716
  124POPC    C313988   5.042   3.257   5.780
  124POPC    HX13989   4.966   3.322   5.829
  124POPC    HY13990   5.021   3.258   5.671
  124POPC   O3113991   5.174   3.306   5.813
  124POPC   C3113992   5.265   3.253   5.733
  124POPC   O3213993   5.246   3.220   5.618
  124POPC   C3213994   5.394   3.227   5.811
  124POPC   H2X13995   5.364   3.187   5.910
  124POPC   H2Y13996   5.447   3.322   5.827
  124POPC   C2313997   5.141   2.732   5.616
  124POPC   H3R13998   5.042   2.687   5.642
  124POPC   H3S13999   5.211   2.648   5.593
  124POPC   C2414000   5.127   2.813   5.486
  124POPC   H4R14001   5.229   2.828   5.445
  124POPC   H4S14002   5.083   2.914   5.505
  124POPC   C2514003   5.037   2.731   5.391
  124POPC   H5R14004   4.930   2.749   5.415
  124POPC   H5S14005   5.055   2.624   5.418
  124POPC   C2614006   5.062   2.742   5.241
  124POPC   H6R14007   4.996   2.821   5.198
  124POPC   H6S14008   5.035   2.644   5.194
  124POPC   C2714009   5.205   2.775   5.198
  124POPC   H7R14010   5.280   2.721   5.259
  124POPC   H7S14011   5.217   2.883   5.221
  124POPC   C2814012   5.228   2.748   5.048
  124POPC   H8R14013   5.303   2.823   5.016
  124POPC   H8S14014   5.135   2.767   4.991
  124POPC   C2914015   5.291   2.614   5.018
  124POPC   H9114016   5.375   2.589   5.085
  124POPC  C21014017   5.258   2.524   4.924
  124POPC  H10114018   5.326   2.440   4.906
  124POPC  C21114019   5.148   2.530   4.823
  124POPC  H11R14020   5.076   2.610   4.851
  124POPC  H11S14021   5.091   2.435   4.820
  124POPC  C21214022   5.204   2.559   4.683
  124POPC  H12R14023   5.257   2.471   4.641
  124POPC  H12S14024   5.278   2.642   4.690
  124POPC  C21314025   5.088   2.601   4.594
  124POPC  H13R14026   5.016   2.655   4.662
  124POPC  H13S14027   5.033   2.515   4.552
  124POPC  C21414028   5.124   2.708   4.491
  124POPC  H14R14029   5.168   2.667   4.398
  124POPC  H14S14030   5.197   2.773   4.542
  124POPC  C21514031   5.003   2.798   4.469
  124POPC  H15R14032   4.999   2.873   4.551
  124POPC  H15S14033   4.913   2.733   4.480
  124POPC  C21614034   4.988   2.868   4.335
  124POPC  H16R14035   5.006   2.799   4.250
  124POPC  H16S14036   5.059   2.954   4.326
  124POPC  C21714037   4.844   2.919   4.332
  124POPC  H17R14038   4.835   2.987   4.419
  124POPC  H17S14039   4.776   2.833   4.346
  124POPC  C21814040   4.801   2.995   4.210
  124POPC  H18R14041   4.811   2.933   4.118
  124POPC  H18S14042   4.865   3.085   4.203
  124POPC  H18T14043   4.695   3.029   4.219
  124POPC   C3314044   5.486   3.122   5.741
  124POPC   H3X14045   5.428   3.031   5.715
  124POPC   H3Y14046   5.564   3.091   5.814
  124POPC   C3414047   5.557   3.177   5.617
  124POPC   H4X14048   5.618   3.265   5.648
  124POPC   H4Y14049   5.479   3.211   5.545
  124POPC   C3514050   5.651   3.079   5.546
  124POPC   H5X14051   5.622   2.975   5.573
  124POPC   H5Y14052   5.753   3.099   5.586
  124POPC   C3614053   5.654   3.086   5.392
  124POPC   H6X14054   5.726   3.009   5.357
  124POPC   H6Y14055   5.693   3.185   5.359
  124POPC   C3714056   5.517   3.060   5.328
  124POPC   H7X14057   5.455   3.152   5.338
  124POPC   H7Y14058   5.464   2.979   5.383
  124POPC   C3814059   5.524   3.023   5.179
  124POPC   H8X14060   5.527   2.912   5.169
  124POPC   H8Y14061   5.619   3.061   5.136
  124POPC   C3914062   5.406   3.081   5.100
  124POPC   H9X14063   5.396   3.190   5.117
  124POPC   H9Y14064   5.312   3.036   5.137
  124POPC  C31014065   5.419   3.051   4.951
  124POPC  H10X14066   5.469   2.952   4.947
  124POPC  H10Y14067   5.485   3.124   4.900
  124POPC  C31114068   5.285   3.036   4.877
  124POPC  H11X14069   5.202   3.023   4.949
  124POPC  H11Y14070   5.291   2.941   4.818
  124POPC  C31214071   5.251   3.147   4.778
  124POPC  H12X14072   5.342   3.185   4.727
  124POPC  H12Y14073   5.205   3.232   4.834
  124POPC  C31314074   5.154   3.092   4.673
  124POPC  H13X14075   5.090   3.014   4.720
  124POPC  H13Y14076   5.211   3.042   4.592
  124POPC  C31414077   5.060   3.199   4.615
  124POPC  H14X14078   5.000   3.243   4.697
  124POPC  H14Y14079   4.989   3.148   4.545
  124POPC  C31514080   5.133   3.309   4.537
  124POPC  H15X14081   5.204   3.362   4.604
  124POPC  H15Y14082   5.057   3.384   4.505
  124POPC  C31614083   5.204   3.257   4.412
  124POPC  H16X14084   5.222   3.340   4.340
  124POPC  H16Y14085   5.141   3.182   4.361
  124POPC  H16Z14086   5.301   3.210   4.438
  125POPC     N14087   2.194   2.748   6.239
  125POPC   C1214088   2.250   2.875   6.297
  125POPC  H12A14089   2.242   2.873   6.405
  125POPC  H12B14090   2.188   2.958   6.265
  125POPC   C1314091   2.144   2.775   6.099
  125POPC  H13A14092   2.059   2.843   6.098
  125POPC  H13B14093   2.224   2.821   6.042
  125POPC  H13C14094   2.116   2.683   6.049
  125POPC   C1414095   2.302   2.642   6.227
  125POPC  H14A14096   2.382   2.682   6.163
  125POPC  H14B14097   2.347   2.623   6.322
  125POPC  H14C14098   2.265   2.549   6.185
  125POPC   C1514099   2.081   2.695   6.318
  125POPC  H15A14100   2.043   2.604   6.269
  125POPC  H15B14101   1.997   2.762   6.324
  125POPC  H15C14102   2.110   2.667   6.418
  125POPC   C1114103   2.397   2.910   6.260
  125POPC  H11A14104   2.463   2.850   6.326
  125POPC  H11B14105   2.413   3.019   6.282
  125POPC     P14106   2.570   2.919   6.068
  125POPC   O1314107   2.622   2.808   5.984
  125POPC   O1414108   2.658   2.962   6.179
  125POPC   O1214109   2.428   2.879   6.125
  125POPC   O1114110   2.529   3.039   5.975
  125POPC    C114111   2.408   3.023   5.899
  125POPC    HA14112   2.327   3.080   5.948
  125POPC    HB14113   2.374   2.917   5.887
  125POPC    C214114   2.431   3.078   5.757
  125POPC    HS14115   2.333   3.106   5.712
  125POPC   O2114116   2.501   2.983   5.676
  125POPC   C2114117   2.427   2.896   5.614
  125POPC   O2214118   2.307   2.879   5.629
  125POPC   C2214119   2.520   2.827   5.515
  125POPC   H2R14120   2.611   2.795   5.570
  125POPC   H2S14121   2.550   2.904   5.442
  125POPC    C314122   2.519   3.203   5.761
  125POPC    HX14123   2.616   3.178   5.809
  125POPC    HY14124   2.470   3.280   5.826
  125POPC   O3114125   2.544   3.242   5.626
  125POPC   C3114126   2.501   3.360   5.590
  125POPC   O3214127   2.444   3.441   5.661
  125POPC   C3214128   2.556   3.390   5.450
  125POPC   H2X14129   2.662   3.414   5.470
  125POPC   H2Y14130   2.506   3.482   5.415
  125POPC   C2314131   2.460   2.707   5.441
  125POPC   H3R14132   2.362   2.732   5.397
  125POPC   H3S14133   2.444   2.623   5.512
  125POPC   C2414134   2.555   2.664   5.329
  125POPC   H4R14135   2.657   2.655   5.373
  125POPC   H4S14136   2.562   2.744   5.253
  125POPC   C2514137   2.514   2.530   5.265
  125POPC   H5R14138   2.471   2.463   5.342
  125POPC   H5S14139   2.604   2.480   5.224
  125POPC   C2614140   2.418   2.545   5.148
  125POPC   H6R14141   2.325   2.596   5.181
  125POPC   H6S14142   2.391   2.444   5.110
  125POPC   C2714143   2.482   2.620   5.031
  125POPC   H7R14144   2.590   2.595   5.026
  125POPC   H7S14145   2.476   2.728   5.054
  125POPC   C2814146   2.413   2.589   4.897
  125POPC   H8R14147   2.428   2.675   4.828
  125POPC   H8S14148   2.304   2.578   4.913
  125POPC   C2914149   2.465   2.466   4.832
  125POPC   H9114150   2.400   2.377   4.832
  125POPC  C21014151   2.585   2.460   4.772
  125POPC  H10114152   2.619   2.364   4.734
  125POPC  C21114153   2.682   2.574   4.761
  125POPC  H11R14154   2.782   2.543   4.800
  125POPC  H11S14155   2.652   2.661   4.823
  125POPC  C21214156   2.699   2.622   4.617
  125POPC  H12R14157   2.606   2.674   4.584
  125POPC  H12S14158   2.715   2.536   4.548
  125POPC  C21314159   2.818   2.716   4.605
  125POPC  H13R14160   2.826   2.750   4.500
  125POPC  H13S14161   2.910   2.660   4.631
  125POPC  C21414162   2.810   2.838   4.698
  125POPC  H14R14163   2.903   2.896   4.687
  125POPC  H14S14164   2.805   2.809   4.805
  125POPC  C21514165   2.696   2.933   4.663
  125POPC  H15R14166   2.599   2.892   4.699
  125POPC  H15S14167   2.689   2.938   4.552
  125POPC  C21614168   2.720   3.073   4.720
  125POPC  H16R14169   2.823   3.107   4.700
  125POPC  H16S14170   2.707   3.068   4.831
  125POPC  C21714171   2.622   3.175   4.663
  125POPC  H17R14172   2.623   3.269   4.722
  125POPC  H17S14173   2.524   3.127   4.676
  125POPC  C21814174   2.641   3.209   4.515
  125POPC  H18R14175   2.661   3.118   4.453
  125POPC  H18S14176   2.728   3.277   4.503
  125POPC  H18T14177   2.551   3.259   4.474
  125POPC   C3314178   2.556   3.277   5.343
  125POPC   H3X14179   2.622   3.193   5.377
  125POPC   H3Y14180   2.601   3.319   5.250
  125POPC   C3414181   2.414   3.227   5.311
  125POPC   H4X14182   2.351   3.315   5.290
  125POPC   H4Y14183   2.378   3.172   5.401
  125POPC   C3514184   2.386   3.142   5.187
  125POPC   H5X14185   2.461   3.059   5.189
  125POPC   H5Y14186   2.404   3.199   5.094
  125POPC   C3614187   2.243   3.081   5.197
  125POPC   H6X14188   2.220   3.070   5.305
  125POPC   H6Y14189   2.262   2.978   5.167
  125POPC   C3714190   2.115   3.138   5.123
  125POPC   H7X14191   2.149   3.219   5.055
  125POPC   H7Y14192   2.056   3.189   5.206
  125POPC   C3814193   2.008   3.046   5.040
  125POPC   H8X14194   1.948   3.137   5.025
  125POPC   H8Y14195   1.948   2.974   5.098
  125POPC   C3914196   2.004   3.001   4.885
  125POPC   H9X14197   2.104   2.978   4.856
  125POPC   H9Y14198   1.964   3.087   4.830
  125POPC  C31014199   1.942   2.872   4.816
  125POPC  H10X14200   1.851   2.905   4.762
  125POPC  H10Y14201   1.914   2.797   4.892
  125POPC  C31114202   2.022   2.800   4.699
  125POPC  H11X14203   1.947   2.749   4.634
  125POPC  H11Y14204   2.087   2.720   4.739
  125POPC  C31214205   2.109   2.889   4.607
  125POPC  H12X14206   2.198   2.920   4.665
  125POPC  H12Y14207   2.049   2.978   4.579
  125POPC  C31314208   2.165   2.827   4.477
  125POPC  H13X14209   2.128   2.890   4.393
  125POPC  H13Y14210   2.126   2.723   4.463
  125POPC  C31414211   2.319   2.826   4.466
  125POPC  H14X14212   2.360   2.743   4.527
  125POPC  H14Y14213   2.360   2.921   4.507
  125POPC  C31514214   2.368   2.813   4.321
  125POPC  H15X14215   2.479   2.813   4.322
  125POPC  H15Y14216   2.336   2.904   4.265
  125POPC  C31614217   2.318   2.689   4.246
  125POPC  H16X14218   2.208   2.682   4.249
  125POPC  H16Y14219   2.360   2.596   4.290
  125POPC  H16Z14220   2.348   2.693   4.138
  126POPC     N14221   5.677   4.231   6.302
  126POPC   C1214222   5.746   4.291   6.179
  126POPC  H12A14223   5.851   4.262   6.179
  126POPC  H12B14224   5.745   4.400   6.186
  126POPC   C1314225   5.597   4.111   6.260
  126POPC  H13A14226   5.544   4.063   6.340
  126POPC  H13B14227   5.522   4.146   6.188
  126POPC  H13C14228   5.658   4.042   6.205
  126POPC   C1414229   5.776   4.202   6.410
  126POPC  H14A14230   5.726   4.171   6.501
  126POPC  H14B14231   5.850   4.128   6.380
  126POPC  H14C14232   5.833   4.293   6.433
  126POPC   C1514233   5.578   4.329   6.355
  126POPC  H15A14234   5.507   4.285   6.424
  126POPC  H15B14235   5.519   4.368   6.271
  126POPC  H15C14236   5.625   4.417   6.396
  126POPC   C1114237   5.687   4.258   6.038
  126POPC  H11A14238   5.689   4.147   6.021
  126POPC  H11B14239   5.755   4.299   5.959
  126POPC     P14240   5.533   4.466   6.016
  126POPC   O1314241   5.634   4.526   5.926
  126POPC   O1414242   5.525   4.513   6.156
  126POPC   O1214243   5.553   4.307   6.021
  126POPC   O1114244   5.390   4.493   5.955
  126POPC    C114245   5.286   4.398   5.944
  126POPC    HA14246   5.190   4.447   5.969
  126POPC    HB14247   5.299   4.314   6.016
  126POPC    C214248   5.278   4.340   5.801
  126POPC    HS14249   5.207   4.254   5.807
  126POPC   O2114250   5.410   4.296   5.766
  126POPC   C2114251   5.415   4.212   5.667
  126POPC   O2214252   5.319   4.171   5.604
  126POPC   C2214253   5.557   4.160   5.653
  126POPC   H2R14254   5.565   4.062   5.700
  126POPC   H2S14255   5.623   4.230   5.710
  126POPC    C314256   5.223   4.442   5.696
  126POPC    HX14257   5.141   4.499   5.745
  126POPC    HY14258   5.177   4.384   5.612
  126POPC   O3114259   5.324   4.535   5.651
  126POPC   C3114260   5.362   4.533   5.525
  126POPC   O3214261   5.299   4.484   5.432
  126POPC   C3214262   5.502   4.598   5.515
  126POPC   H2X14263   5.517   4.656   5.608
  126POPC   H2Y14264   5.502   4.664   5.428
  126POPC   C2314265   5.611   4.160   5.508
  126POPC   H3R14266   5.722   4.159   5.517
  126POPC   H3S14267   5.583   4.256   5.463
  126POPC   C2414268   5.567   4.061   5.399
  126POPC   H4R14269   5.458   4.072   5.381
  126POPC   H4S14270   5.588   3.955   5.426
  126POPC   C2514271   5.645   4.100   5.272
  126POPC   H5R14272   5.733   4.037   5.252
  126POPC   H5S14273   5.689   4.199   5.291
  126POPC   C2614274   5.570   4.124   5.143
  126POPC   H6R14275   5.513   4.033   5.113
  126POPC   H6S14276   5.643   4.147   5.062
  126POPC   C2714277   5.477   4.243   5.158
  126POPC   H7R14278   5.505   4.323   5.085
  126POPC   H7S14279   5.490   4.287   5.259
  126POPC   C2814280   5.335   4.194   5.137
  126POPC   H8R14281   5.317   4.102   5.195
  126POPC   H8S14282   5.323   4.169   5.030
  126POPC   C2914283   5.249   4.305   5.186
  126POPC   H9114284   5.223   4.306   5.293
  126POPC  C21014285   5.209   4.405   5.108
  126POPC  H10114286   5.175   4.496   5.159
  126POPC  C21114287   5.241   4.421   4.963
  126POPC  H11R14288   5.351   4.422   4.950
  126POPC  H11S14289   5.202   4.521   4.937
  126POPC  C21214290   5.184   4.325   4.857
  126POPC  H12R14291   5.073   4.332   4.856
  126POPC  H12S14292   5.210   4.220   4.876
  126POPC  C21314293   5.238   4.362   4.718
  126POPC  H13R14294   5.279   4.465   4.724
  126POPC  H13S14295   5.158   4.364   4.643
  126POPC  C21414296   5.348   4.271   4.665
  126POPC  H14R14297   5.430   4.272   4.741
  126POPC  H14S14298   5.384   4.317   4.571
  126POPC  C21514299   5.320   4.125   4.631
  126POPC  H15R14300   5.249   4.118   4.545
  126POPC  H15S14301   5.274   4.074   4.718
  126POPC  C21614302   5.454   4.061   4.595
  126POPC  H16R14303   5.450   3.951   4.610
  126POPC  H16S14304   5.532   4.099   4.664
  126POPC  C21714305   5.497   4.089   4.451
  126POPC  H17R14306   5.465   4.190   4.418
  126POPC  H17S14307   5.440   4.014   4.391
  126POPC  C21814308   5.647   4.074   4.421
  126POPC  H18R14309   5.679   3.970   4.439
  126POPC  H18S14310   5.709   4.140   4.485
  126POPC  H18T14311   5.669   4.100   4.315
  126POPC   C3314312   5.612   4.490   5.503
  126POPC   H3X14313   5.599   4.444   5.403
  126POPC   H3Y14314   5.584   4.416   5.582
  126POPC   C3414315   5.760   4.519   5.539
  126POPC   H4X14316   5.784   4.454   5.627
  126POPC   H4Y14317   5.770   4.623   5.576
  126POPC   C3514318   5.873   4.488   5.435
  126POPC   H5X14319   5.966   4.472   5.491
  126POPC   H5Y14320   5.892   4.578   5.376
  126POPC   C3614321   5.850   4.370   5.339
  126POPC   H6X14322   5.748   4.382   5.300
  126POPC   H6Y14323   5.857   4.276   5.399
  126POPC   C3714324   5.936   4.351   5.210
  126POPC   H7X14325   5.956   4.242   5.197
  126POPC   H7Y14326   6.033   4.403   5.219
  126POPC   C3814327   5.859   4.398   5.083
  126POPC   H8X14328   5.889   4.505   5.081
  126POPC   H8Y14329   5.750   4.389   5.099
  126POPC   C3914330   5.888   4.336   4.944
  126POPC   H9X14331   5.926   4.233   4.965
  126POPC   H9Y14332   5.969   4.392   4.894
  126POPC  C31014333   5.767   4.319   4.845
  126POPC  H10X14334   5.675   4.294   4.902
  126POPC  H10Y14335   5.792   4.229   4.784
  126POPC  C31114336   5.736   4.434   4.743
  126POPC  H11X14337   5.829   4.478   4.706
  126POPC  H11Y14338   5.680   4.513   4.797
  126POPC  C31214339   5.644   4.394   4.624
  126POPC  H12X14340   5.542   4.421   4.658
  126POPC  H12Y14341   5.648   4.284   4.611
  126POPC  C31314342   5.658   4.460   4.483
  126POPC  H13X14343   5.687   4.380   4.412
  126POPC  H13Y14344   5.740   4.534   4.482
  126POPC  C31414345   5.528   4.526   4.424
  126POPC  H14X14346   5.523   4.632   4.455
  126POPC  H14Y14347   5.438   4.477   4.466
  126POPC  C31514348   5.515   4.516   4.270
  126POPC  H15X14349   5.551   4.415   4.241
  126POPC  H15Y14350   5.584   4.590   4.224
  126POPC  C31614351   5.375   4.535   4.209
  126POPC  H16X14352   5.336   4.637   4.225
  126POPC  H16Y14353   5.302   4.462   4.250
  126POPC  H16Z14354   5.378   4.521   4.099
  127POPC     N14355   5.920   3.740   6.349
  127POPC   C1214356   5.884   3.592   6.328
  127POPC  H12A14357   5.787   3.589   6.279
  127POPC  H12B14358   5.869   3.542   6.423
  127POPC   C1314359   5.949   3.804   6.216
  127POPC  H13A14360   5.998   3.899   6.224
  127POPC  H13B14361   6.013   3.737   6.158
  127POPC  H13C14362   5.858   3.812   6.158
  127POPC   C1414363   5.797   3.800   6.411
  127POPC  H14A14364   5.805   3.907   6.419
  127POPC  H14B14365   5.708   3.775   6.352
  127POPC  H14C14366   5.782   3.759   6.510
  127POPC   C1514367   6.039   3.761   6.437
  127POPC  H15A14368   6.065   3.866   6.443
  127POPC  H15B14369   6.127   3.709   6.401
  127POPC  H15C14370   6.020   3.727   6.538
  127POPC   C1114371   5.972   3.506   6.235
  127POPC  H11A14372   5.945   3.399   6.249
  127POPC  H11B14373   6.079   3.516   6.262
  127POPC     P14374   5.818   3.513   6.024
  127POPC   O1314375   5.775   3.377   6.067
  127POPC   O1414376   5.841   3.542   5.882
  127POPC   O1214377   5.953   3.545   6.099
  127POPC   O1114378   5.717   3.617   6.092
  127POPC    C114379   5.666   3.735   6.030
  127POPC    HA14380   5.750   3.795   5.991
  127POPC    HB14381   5.614   3.796   6.107
  127POPC    C214382   5.560   3.716   5.916
  127POPC    HS14383   5.463   3.695   5.967
  127POPC   O2114384   5.593   3.608   5.826
  127POPC   C2114385   5.497   3.579   5.741
  127POPC   O2214386   5.378   3.599   5.760
  127POPC   C2214387   5.556   3.518   5.614
  127POPC   H2R14388   5.497   3.427   5.591
  127POPC   H2S14389   5.661   3.490   5.637
  127POPC    C314390   5.548   3.847   5.831
  127POPC    HX14391   5.559   3.935   5.897
  127POPC    HY14392   5.445   3.851   5.789
  127POPC   O3114393   5.643   3.846   5.720
  127POPC   C3114394   5.765   3.897   5.744
  127POPC   O3214395   5.792   3.968   5.839
  127POPC   C3214396   5.868   3.838   5.644
  127POPC   H2X14397   5.817   3.769   5.574
  127POPC   H2Y14398   5.935   3.776   5.708
  127POPC   C2314399   5.552   3.609   5.489
  127POPC   H3R14400   5.630   3.569   5.419
  127POPC   H3S14401   5.581   3.714   5.513
  127POPC   C2414402   5.418   3.606   5.414
  127POPC   H4R14403   5.341   3.664   5.467
  127POPC   H4S14404   5.380   3.501   5.412
  127POPC   C2514405   5.430   3.655   5.268
  127POPC   H5R14406   5.520   3.719   5.260
  127POPC   H5S14407   5.344   3.717   5.239
  127POPC   C2614408   5.440   3.532   5.177
  127POPC   H6R14409   5.345   3.474   5.182
  127POPC   H6S14410   5.519   3.474   5.229
  127POPC   C2714411   5.479   3.551   5.029
  127POPC   H7R14412   5.567   3.618   5.020
  127POPC   H7S14413   5.396   3.598   4.972
  127POPC   C2814414   5.517   3.417   4.960
  127POPC   H8R14415   5.559   3.439   4.859
  127POPC   H8S14416   5.424   3.359   4.944
  127POPC   C2914417   5.613   3.337   5.045
  127POPC   H9114418   5.575   3.310   5.146
  127POPC  C21014419   5.729   3.281   5.010
  127POPC  H10114420   5.784   3.220   5.083
  127POPC  C21114421   5.790   3.287   4.874
  127POPC  H11R14422   5.899   3.290   4.886
  127POPC  H11S14423   5.763   3.377   4.816
  127POPC  C21214424   5.744   3.161   4.799
  127POPC  H12R14425   5.651   3.188   4.744
  127POPC  H12S14426   5.719   3.077   4.868
  127POPC  C21314427   5.847   3.107   4.700
  127POPC  H13R14428   5.895   3.015   4.741
  127POPC  H13S14429   5.922   3.186   4.690
  127POPC  C21414430   5.782   3.073   4.565
  127POPC  H14R14431   5.702   3.147   4.543
  127POPC  H14S14432   5.734   2.975   4.584
  127POPC  C21514433   5.871   3.056   4.442
  127POPC  H15R14434   5.841   2.963   4.389
  127POPC  H15S14435   5.976   3.035   4.468
  127POPC  C21614436   5.851   3.170   4.340
  127POPC  H16R14437   5.796   3.254   4.389
  127POPC  H16S14438   5.785   3.132   4.258
  127POPC  C21714439   5.981   3.229   4.285
  127POPC  H17R14440   6.053   3.146   4.266
  127POPC  H17S14441   6.025   3.292   4.365
  127POPC  C21814442   5.966   3.313   4.158
  127POPC  H18R14443   5.894   3.396   4.174
  127POPC  H18S14444   5.929   3.251   4.073
  127POPC  H18T14445   6.063   3.357   4.129
  127POPC   C3314446   5.962   3.938   5.569
  127POPC   H3X14447   6.065   3.897   5.565
  127POPC   H3Y14448   5.966   4.033   5.628
  127POPC   C3414449   5.923   3.978   5.425
  127POPC   H4X14450   5.978   4.072   5.400
  127POPC   H4Y14451   5.816   4.001   5.427
  127POPC   C3514452   5.952   3.879   5.310
  127POPC   H5X14453   6.045   3.823   5.333
  127POPC   H5Y14454   5.974   3.938   5.218
  127POPC   C3614455   5.838   3.780   5.280
  127POPC   H6X14456   5.771   3.775   5.369
  127POPC   H6Y14457   5.882   3.679   5.268
  127POPC   C3714458   5.746   3.804   5.157
  127POPC   H7X14459   5.655   3.859   5.188
  127POPC   H7Y14460   5.711   3.703   5.128
  127POPC   C3814461   5.802   3.872   5.031
  127POPC   H8X14462   5.888   3.812   4.995
  127POPC   H8Y14463   5.838   3.975   5.053
  127POPC   C3914464   5.694   3.882   4.921
  127POPC   H9X14465   5.625   3.967   4.943
  127POPC   H9Y14466   5.632   3.790   4.921
  127POPC  C31014467   5.745   3.903   4.778
  127POPC  H10X14468   5.801   3.998   4.770
  127POPC  H10Y14469   5.657   3.911   4.710
  127POPC  C31114470   5.832   3.787   4.727
  127POPC  H11X14471   5.777   3.691   4.743
  127POPC  H11Y14472   5.925   3.783   4.787
  127POPC  C31214473   5.868   3.801   4.579
  127POPC  H12X14474   5.971   3.764   4.561
  127POPC  H12Y14475   5.865   3.908   4.551
  127POPC  C31314476   5.771   3.721   4.492
  127POPC  H13X14477   5.668   3.754   4.518
  127POPC  H13Y14478   5.778   3.612   4.515
  127POPC  C31414479   5.792   3.742   4.342
  127POPC  H14X14480   5.875   3.679   4.305
  127POPC  H14Y14481   5.820   3.848   4.322
  127POPC  C31514482   5.662   3.712   4.268
  127POPC  H15X14483   5.582   3.777   4.311
  127POPC  H15Y14484   5.632   3.606   4.285
  127POPC  C31614485   5.671   3.740   4.119
  127POPC  H16X14486   5.570   3.751   4.074
  127POPC  H16Y14487   5.722   3.655   4.069
  127POPC  H16Z14488   5.729   3.833   4.101
  128POPC     N14489   4.998   5.725   6.273
  128POPC   C1214490   5.049   5.754   6.134
  128POPC  H12A14491   4.962   5.760   6.070
  128POPC  H12B14492   5.108   5.671   6.100
  128POPC   C1314493   4.878   5.812   6.296
  128POPC  H13A14494   4.901   5.913   6.263
  128POPC  H13B14495   4.793   5.776   6.239
  128POPC  H13C14496   4.852   5.818   6.401
  128POPC   C1414497   4.957   5.583   6.292
  128POPC  H14A14498   4.924   5.565   6.395
  128POPC  H14B14499   4.870   5.558   6.230
  128POPC  H14C14500   5.036   5.513   6.270
  128POPC   C1514501   5.106   5.761   6.368
  128POPC  H15A14502   5.198   5.710   6.344
  128POPC  H15B14503   5.080   5.738   6.471
  128POPC  H15C14504   5.123   5.869   6.361
  128POPC   C1114505   5.130   5.886   6.111
  128POPC  H11A14506   5.152   5.898   6.002
  128POPC  H11B14507   5.230   5.873   6.158
  128POPC     P14508   4.992   6.110   6.078
  128POPC   O1314509   5.096   6.189   6.010
  128POPC   O1414510   4.900   6.181   6.170
  128POPC   O1214511   5.065   6.000   6.166
  128POPC   O1114512   4.916   6.020   5.972
  128POPC    C114513   4.774   6.014   5.958
  128POPC    HA14514   4.727   6.115   5.964
  128POPC    HB14515   4.733   5.952   6.041
  128POPC    C214516   4.732   5.944   5.824
  128POPC    HS14517   4.641   5.883   5.843
  128POPC   O2114518   4.836   5.859   5.775
  128POPC   C2114519   4.877   5.765   5.858
  128POPC   O2214520   4.820   5.728   5.959
  128POPC   C2214521   5.015   5.719   5.810
  128POPC   H2R14522   5.039   5.625   5.862
  128POPC   H2S14523   5.089   5.798   5.836
  128POPC    C314524   4.696   6.042   5.708
  128POPC    HX14525   4.767   6.127   5.711
  128POPC    HY14526   4.592   6.080   5.726
  128POPC   O3114527   4.705   5.976   5.580
  128POPC   C3114528   4.652   6.042   5.478
  128POPC   O3214529   4.600   6.152   5.483
  128POPC   C3214530   4.666   5.958   5.350
  128POPC   H2X14531   4.646   5.854   5.379
  128POPC   H2Y14532   4.769   5.967   5.312
  128POPC   C2314533   5.013   5.702   5.658
  128POPC   H3R14534   4.986   5.797   5.606
  128POPC   H3S14535   4.934   5.627   5.637
  128POPC   C2414536   5.143   5.651   5.597
  128POPC   H4R14537   5.186   5.575   5.665
  128POPC   H4S14538   5.218   5.733   5.586
  128POPC   C2514539   5.111   5.587   5.462
  128POPC   H5R14540   5.034   5.509   5.479
  128POPC   H5S14541   5.196   5.532   5.423
  128POPC   C2614542   5.071   5.685   5.351
  128POPC   H6R14543   5.038   5.782   5.393
  128POPC   H6S14544   4.985   5.642   5.296
  128POPC   C2714545   5.182   5.705   5.248
  128POPC   H7R14546   5.224   5.606   5.219
  128POPC   H7S14547   5.263   5.765   5.295
  128POPC   C2814548   5.125   5.773   5.123
  128POPC   H8R14549   5.073   5.867   5.156
  128POPC   H8S14550   5.048   5.706   5.079
  128POPC   C2914551   5.229   5.806   5.021
  128POPC   H9114552   5.332   5.781   5.048
  128POPC  C21014553   5.205   5.859   4.900
  128POPC  H10114554   5.292   5.880   4.838
  128POPC  C21114555   5.076   5.900   4.834
  128POPC  H11R14556   4.989   5.877   4.900
  128POPC  H11S14557   5.064   5.837   4.742
  128POPC  C21214558   5.065   6.048   4.788
  128POPC  H12R14559   5.162   6.082   4.745
  128POPC  H12S14560   5.045   6.110   4.878
  128POPC  C21314561   4.956   6.078   4.682
  128POPC  H13R14562   4.979   6.018   4.591
  128POPC  H13S14563   4.959   6.185   4.653
  128POPC  C21414564   4.815   6.041   4.732
  128POPC  H14R14565   4.784   6.103   4.819
  128POPC  H14S14566   4.830   5.938   4.767
  128POPC  C21514567   4.701   6.028   4.628
  128POPC  H15R14568   4.623   5.958   4.664
  128POPC  H15S14569   4.747   5.985   4.539
  128POPC  C21614570   4.634   6.155   4.578
  128POPC  H16R14571   4.717   6.228   4.569
  128POPC  H16S14572   4.556   6.193   4.648
  128POPC  C21714573   4.580   6.142   4.435
  128POPC  H17R14574   4.495   6.211   4.417
  128POPC  H17S14575   4.546   6.037   4.418
  128POPC  C21814576   4.693   6.178   4.339
  128POPC  H18R14577   4.712   6.287   4.338
  128POPC  H18S14578   4.675   6.140   4.236
  128POPC  H18T14579   4.786   6.131   4.378
  128POPC   C3314580   4.563   5.996   5.240
  128POPC   H3X14581   4.532   6.102   5.251
  128POPC   H3Y14582   4.473   5.934   5.256
  128POPC   C3414583   4.609   5.977   5.094
  128POPC   H4X14584   4.716   6.006   5.082
  128POPC   H4Y14585   4.549   6.043   5.028
  128POPC   C3514586   4.587   5.832   5.052
  128POPC   H5X14587   4.485   5.796   5.075
  128POPC   H5Y14588   4.658   5.771   5.110
  128POPC   C3614589   4.615   5.804   4.905
  128POPC   H6X14590   4.715   5.847   4.887
  128POPC   H6Y14591   4.541   5.852   4.838
  128POPC   C3714592   4.622   5.653   4.881
  128POPC   H7X14593   4.520   5.610   4.888
  128POPC   H7Y14594   4.684   5.609   4.962
  128POPC   C3814595   4.685   5.618   4.747
  128POPC   H8X14596   4.639   5.681   4.667
  128POPC   H8Y14597   4.663   5.511   4.723
  128POPC   C3914598   4.837   5.637   4.744
  128POPC   H9X14599   4.886   5.564   4.812
  128POPC   H9Y14600   4.866   5.737   4.781
  128POPC  C31014601   4.885   5.621   4.600
  128POPC  H10X14602   4.801   5.575   4.547
  128POPC  H10Y14603   4.979   5.563   4.590
  128POPC  C31114604   4.883   5.748   4.521
  128POPC  H11X14605   4.984   5.789   4.527
  128POPC  H11Y14606   4.820   5.815   4.581
  128POPC  C31214607   4.822   5.743   4.378
  128POPC  H12X14608   4.716   5.711   4.386
  128POPC  H12Y14609   4.873   5.669   4.313
  128POPC  C31314610   4.827   5.885   4.318
  128POPC  H13X14611   4.909   5.933   4.376
  128POPC  H13Y14612   4.731   5.932   4.347
  128POPC  C31414613   4.852   5.913   4.169
  128POPC  H14X14614   4.755   5.911   4.115
  128POPC  H14Y14615   4.912   5.830   4.126
  128POPC  C31514616   4.922   6.049   4.135
  128POPC  H15X14617   4.845   6.122   4.102
  128POPC  H15Y14618   4.985   6.033   4.044
  128POPC  C31614619   5.013   6.119   4.240
  128POPC  H16X14620   4.956   6.193   4.300
  128POPC  H16Y14621   5.095   6.175   4.191
  128POPC  H16Z14622   5.060   6.048   4.310
  129POPC     N14623   5.698   2.160   6.380
  129POPC   C1214624   5.711   2.311   6.375
  129POPC  H12A14625   5.791   2.343   6.441
  129POPC  H12B14626   5.620   2.356   6.410
  129POPC   C1314627   5.572   2.118   6.311
  129POPC  H13A14628   5.583   2.141   6.204
  129POPC  H13B14629   5.553   2.013   6.320
  129POPC  H13C14630   5.486   2.177   6.341
  129POPC   C1414631   5.813   2.101   6.304
  129POPC  H14A14632   5.821   2.147   6.205
  129POPC  H14B14633   5.907   2.116   6.354
  129POPC  H14C14634   5.799   1.995   6.285
  129POPC   C1514635   5.702   2.110   6.519
  129POPC  H15A14636   5.620   2.148   6.578
  129POPC  H15B14637   5.793   2.141   6.570
  129POPC  H15C14638   5.700   2.001   6.521
  129POPC   C1114639   5.738   2.371   6.236
  129POPC  H11A14640   5.844   2.349   6.206
  129POPC  H11B14641   5.729   2.481   6.245
  129POPC     P14642   5.688   2.276   5.995
  129POPC   O1314643   5.571   2.277   5.906
  129POPC   O1414644   5.772   2.155   6.007
  129POPC   O1214645   5.643   2.322   6.141
  129POPC   O1114646   5.778   2.399   5.963
  129POPC    C114647   5.720   2.529   5.974
  129POPC    HA14648   5.760   2.578   6.065
  129POPC    HB14649   5.608   2.530   5.979
  129POPC    C214650   5.765   2.613   5.855
  129POPC    HS14651   5.718   2.714   5.863
  129POPC   O2114652   5.728   2.547   5.733
  129POPC   C2114653   5.636   2.598   5.657
  129POPC   O2214654   5.551   2.679   5.691
  129POPC   C2214655   5.656   2.539   5.515
  129POPC   H2R14656   5.571   2.472   5.494
  129POPC   H2S14657   5.746   2.475   5.518
  129POPC    C314658   5.921   2.631   5.865
  129POPC    HX14659   5.943   2.666   5.968
  129POPC    HY14660   5.958   2.710   5.798
  129POPC   O3114661   5.994   2.509   5.845
  129POPC   C3114662   5.995   2.476   5.717
  129POPC   O3214663   5.963   2.548   5.624
  129POPC   C3214664   6.051   2.337   5.701
  129POPC   H2X14665   5.969   2.264   5.719
  129POPC   H2Y14666   6.131   2.323   5.777
  129POPC   C2314667   5.676   2.643   5.400
  129POPC   H3R14668   5.766   2.704   5.425
  129POPC   H3S14669   5.589   2.711   5.395
  129POPC   C2414670   5.700   2.576   5.263
  129POPC   H4R14671   5.608   2.523   5.235
  129POPC   H4S14672   5.779   2.499   5.274
  129POPC   C2514673   5.740   2.669   5.144
  129POPC   H5R14674   5.841   2.637   5.108
  129POPC   H5S14675   5.748   2.774   5.180
  129POPC   C2614676   5.640   2.662   5.026
  129POPC   H6R14677   5.544   2.703   5.064
  129POPC   H6S14678   5.622   2.555   4.999
  129POPC   C2714679   5.676   2.741   4.899
  129POPC   H7R14680   5.771   2.703   4.856
  129POPC   H7S14681   5.697   2.845   4.933
  129POPC   C2814682   5.565   2.741   4.789
  129POPC   H8R14683   5.469   2.719   4.840
  129POPC   H8S14684   5.580   2.660   4.716
  129POPC   C2914685   5.548   2.873   4.718
  129POPC   H9114686   5.593   2.954   4.776
  129POPC  C21014687   5.495   2.910   4.599
  129POPC  H10114688   5.499   3.017   4.574
  129POPC  C21114689   5.430   2.829   4.491
  129POPC  H11R14690   5.335   2.881   4.464
  129POPC  H11S14691   5.409   2.726   4.526
  129POPC  C21214692   5.506   2.821   4.358
  129POPC  H12R14693   5.512   2.922   4.312
  129POPC  H12S14694   5.450   2.756   4.287
  129POPC  C21314695   5.646   2.764   4.381
  129POPC  H13R14696   5.640   2.663   4.426
  129POPC  H13S14697   5.696   2.828   4.456
  129POPC  C21414698   5.736   2.765   4.258
  129POPC  H14R14699   5.841   2.753   4.297
  129POPC  H14S14700   5.732   2.862   4.205
  129POPC  C21514701   5.710   2.648   4.164
  129POPC  H15R14702   5.617   2.666   4.106
  129POPC  H15S14703   5.696   2.556   4.225
  129POPC  C21614704   5.830   2.630   4.071
  129POPC  H16R14705   5.923   2.642   4.131
  129POPC  H16S14706   5.828   2.711   3.995
  129POPC  C21714707   5.839   2.493   4.003
  129POPC  H17R14708   5.744   2.472   3.949
  129POPC  H17S14709   5.853   2.415   4.081
  129POPC  C21814710   5.957   2.489   3.905
  129POPC  H18R14711   5.964   2.390   3.855
  129POPC  H18S14712   6.052   2.509   3.958
  129POPC  H18T14713   5.945   2.568   3.827
  129POPC   C3314714   6.109   2.322   5.560
  129POPC   H3X14715   6.166   2.227   5.563
  129POPC   H3Y14716   6.179   2.405   5.535
  129POPC   C3414717   6.001   2.312   5.452
  129POPC   H4X14718   5.969   2.413   5.418
  129POPC   H4Y14719   5.911   2.261   5.494
  129POPC   C3514720   6.053   2.232   5.334
  129POPC   H5X14721   6.126   2.160   5.375
  129POPC   H5Y14722   6.107   2.300   5.264
  129POPC   C3614723   5.948   2.150   5.260
  129POPC   H6X14724   5.893   2.084   5.331
  129POPC   H6Y14725   5.999   2.083   5.187
  129POPC   C3714726   5.849   2.238   5.183
  129POPC   H7X14727   5.905   2.322   5.136
  129POPC   H7Y14728   5.777   2.282   5.255
  129POPC   C3814729   5.774   2.161   5.075
  129POPC   H8X14730   5.717   2.078   5.123
  129POPC   H8Y14731   5.847   2.114   5.005
  129POPC   C3914732   5.677   2.249   4.995
  129POPC   H9X14733   5.620   2.314   5.065
  129POPC   H9Y14734   5.605   2.182   4.943
  129POPC  C31014735   5.748   2.335   4.889
  129POPC  H10X14736   5.834   2.278   4.849
  129POPC  H10Y14737   5.789   2.427   4.936
  129POPC  C31114738   5.655   2.372   4.773
  129POPC  H11X14739   5.568   2.429   4.813
  129POPC  H11Y14740   5.615   2.280   4.726
  129POPC  C31214741   5.724   2.457   4.665
  129POPC  H12X14742   5.771   2.545   4.715
  129POPC  H12Y14743   5.647   2.497   4.595
  129POPC  C31314744   5.832   2.385   4.585
  129POPC  H13X14745   5.871   2.297   4.640
  129POPC  H13Y14746   5.916   2.456   4.570
  129POPC  C31414747   5.782   2.342   4.446
  129POPC  H14X14748   5.750   2.433   4.390
  129POPC  H14Y14749   5.693   2.277   4.459
  129POPC  C31514750   5.889   2.268   4.365
  129POPC  H15X14751   5.848   2.247   4.264
  129POPC  H15Y14752   5.909   2.172   4.415
  129POPC  C31614753   6.022   2.340   4.348
  129POPC  H16X14754   6.090   2.282   4.282
  129POPC  H16Y14755   6.072   2.351   4.447
  129POPC  H16Z14756   6.006   2.441   4.304
  130POPC     N14757   1.008   3.927   6.229
  130POPC   C1214758   1.048   3.878   6.093
  130POPC  H12A14759   1.094   3.960   6.038
  130POPC  H12B14760   0.960   3.849   6.036
  130POPC   C1314761   1.121   4.005   6.290
  130POPC  H13A14762   1.099   4.034   6.391
  130POPC  H13B14763   1.212   3.944   6.288
  130POPC  H13C14764   1.141   4.098   6.236
  130POPC   C1414765   0.886   4.011   6.224
  130POPC  H14A14766   0.868   4.055   6.322
  130POPC  H14B14767   0.896   4.094   6.155
  130POPC  H14C14768   0.797   3.954   6.196
  130POPC   C1514769   0.979   3.809   6.319
  130POPC  H15A14770   0.883   3.766   6.294
  130POPC  H15B14771   0.982   3.841   6.422
  130POPC  H15C14772   1.059   3.736   6.304
  130POPC   C1114773   1.147   3.761   6.095
  130POPC  H11A14774   1.162   3.728   5.991
  130POPC  H11B14775   1.103   3.672   6.146
  130POPC     P14776   1.384   3.695   6.173
  130POPC   O1314777   1.325   3.586   6.255
  130POPC   O1414778   1.511   3.761   6.213
  130POPC   O1214779   1.270   3.803   6.158
  130POPC   O1114780   1.393   3.648   6.025
  130POPC    C114781   1.418   3.743   5.922
  130POPC    HA14782   1.527   3.743   5.900
  130POPC    HB14783   1.391   3.849   5.949
  130POPC    C214784   1.342   3.703   5.794
  130POPC    HS14785   1.414   3.711   5.709
  130POPC   O2114786   1.226   3.786   5.779
  130POPC   C2114787   1.244   3.888   5.702
  130POPC   O2214788   1.349   3.931   5.659
  130POPC   C2214789   1.109   3.940   5.660
  130POPC   H2R14790   1.095   4.040   5.706
  130POPC   H2S14791   1.029   3.871   5.693
  130POPC    C314792   1.288   3.557   5.796
  130POPC    HX14793   1.187   3.559   5.843
  130POPC    HY14794   1.349   3.493   5.861
  130POPC   O3114795   1.289   3.502   5.662
  130POPC   C3114796   1.174   3.500   5.598
  130POPC   O3214797   1.066   3.527   5.646
  130POPC   C3214798   1.199   3.460   5.451
  130POPC   H2X14799   1.294   3.407   5.443
  130POPC   H2Y14800   1.201   3.551   5.389
  130POPC   C2314801   1.114   3.950   5.507
  130POPC   H3R14802   1.186   4.032   5.483
  130POPC   H3S14803   1.011   3.978   5.474
  130POPC   C2414804   1.162   3.831   5.424
  130POPC   H4R14805   1.097   3.743   5.443
  130POPC   H4S14806   1.267   3.806   5.450
  130POPC   C2514807   1.157   3.869   5.275
  130POPC   H5R14808   1.218   3.960   5.255
  130POPC   H5S14809   1.052   3.890   5.249
  130POPC   C2614810   1.196   3.758   5.178
  130POPC   H6R14811   1.163   3.786   5.076
  130POPC   H6S14812   1.141   3.666   5.207
  130POPC   C2714813   1.346   3.731   5.174
  130POPC   H7R14814   1.383   3.705   5.275
  130POPC   H7S14815   1.398   3.825   5.142
  130POPC   C2814816   1.376   3.618   5.075
  130POPC   H8R14817   1.321   3.641   4.981
  130POPC   H8S14818   1.336   3.522   5.115
  130POPC   C2914819   1.522   3.607   5.047
  130POPC   H9114820   1.588   3.655   5.120
  130POPC  C21014821   1.575   3.544   4.941
  130POPC  H10114822   1.684   3.542   4.929
  130POPC  C21114823   1.499   3.475   4.831
  130POPC  H11R14824   1.392   3.505   4.829
  130POPC  H11S14825   1.501   3.365   4.846
  130POPC  C21214826   1.564   3.506   4.696
  130POPC  H12R14827   1.675   3.500   4.704
  130POPC  H12S14828   1.538   3.611   4.668
  130POPC  C21314829   1.520   3.411   4.584
  130POPC  H13R14830   1.574   3.314   4.595
  130POPC  H13S14831   1.555   3.457   4.488
  130POPC  C21414832   1.370   3.384   4.575
  130POPC  H14R14833   1.313   3.458   4.634
  130POPC  H14S14834   1.350   3.284   4.620
  130POPC  C21514835   1.318   3.388   4.430
  130POPC  H15R14836   1.242   3.308   4.419
  130POPC  H15S14837   1.401   3.366   4.360
  130POPC  C21614838   1.252   3.522   4.393
  130POPC  H16R14839   1.163   3.535   4.459
  130POPC  H16S14840   1.215   3.517   4.288
  130POPC  C21714841   1.341   3.647   4.408
  130POPC  H17R14842   1.393   3.643   4.506
  130POPC  H17S14843   1.274   3.736   4.412
  130POPC  C21814844   1.443   3.668   4.296
  130POPC  H18R14845   1.515   3.584   4.290
  130POPC  H18S14846   1.500   3.762   4.313
  130POPC  H18T14847   1.391   3.677   4.198
  130POPC   C3314848   1.096   3.358   5.399
  130POPC   H3X14849   0.997   3.406   5.411
  130POPC   H3Y14850   1.103   3.267   5.463
  130POPC   C3414851   1.112   3.310   5.254
  130POPC   H4X14852   1.058   3.213   5.245
  130POPC   H4Y14853   1.218   3.291   5.228
  130POPC   C3514854   1.049   3.406   5.153
  130POPC   H5X14855   1.127   3.478   5.124
  130POPC   H5Y14856   0.965   3.462   5.200
  130POPC   C3614857   0.994   3.334   5.029
  130POPC   H6X14858   0.900   3.281   5.058
  130POPC   H6Y14859   1.067   3.257   4.995
  130POPC   C3714860   0.965   3.429   4.913
  130POPC   H7X14861   0.886   3.501   4.943
  130POPC   H7Y14862   0.927   3.370   4.826
  130POPC   C3814863   1.090   3.503   4.868
  130POPC   H8X14864   1.175   3.431   4.862
  130POPC   H8Y14865   1.116   3.581   4.944
  130POPC   C3914866   1.073   3.572   4.734
  130POPC   H9X14867   1.058   3.496   4.654
  130POPC   H9Y14868   1.167   3.627   4.711
  130POPC  C31014869   0.955   3.670   4.733
  130POPC  H10X14870   0.960   3.736   4.823
  130POPC  H10Y14871   0.859   3.614   4.738
  130POPC  C31114872   0.959   3.756   4.607
  130POPC  H11X14873   0.858   3.796   4.587
  130POPC  H11Y14874   0.986   3.692   4.519
  130POPC  C31214875   1.059   3.871   4.623
  130POPC  H12X14876   1.161   3.831   4.643
  130POPC  H12Y14877   1.030   3.931   4.712
  130POPC  C31314878   1.062   3.963   4.501
  130POPC  H13X14879   0.957   3.986   4.472
  130POPC  H13Y14880   1.108   3.910   4.415
  130POPC  C31414881   1.135   4.095   4.531
  130POPC  H14X14882   1.103   4.132   4.631
  130POPC  H14Y14883   1.106   4.171   4.455
  130POPC  C31514884   1.287   4.079   4.530
  130POPC  H15X14885   1.315   3.987   4.586
  130POPC  H15Y14886   1.334   4.165   4.583
  130POPC  C31614887   1.340   4.072   4.387
  130POPC  H16X14888   1.447   4.047   4.383
  130POPC  H16Y14889   1.328   4.171   4.338
  130POPC  H16Z14890   1.286   3.995   4.328
  131POPC     N14891   1.880   5.900   6.160
  131POPC   C1214892   1.926   5.831   6.032
  131POPC  H12A14893   1.989   5.900   5.977
  131POPC  H12B14894   1.842   5.805   5.970
  131POPC   C1314895   2.000   5.936   6.242
  131POPC  H13A14896   2.060   5.846   6.258
  131POPC  H13B14897   2.070   6.001   6.191
  131POPC  H13C14898   1.975   5.977   6.339
  131POPC   C1414899   1.806   6.026   6.128
  131POPC  H14A14900   1.765   6.072   6.217
  131POPC  H14B14901   1.870   6.099   6.081
  131POPC  H14C14902   1.724   6.006   6.061
  131POPC   C1514903   1.792   5.809   6.241
  131POPC  H15A14904   1.854   5.736   6.292
  131POPC  H15B14905   1.719   5.758   6.179
  131POPC  H15C14906   1.738   5.865   6.316
  131POPC   C1114907   2.013   5.706   6.046
  131POPC  H11A14908   2.020   5.653   5.949
  131POPC  H11B14909   1.969   5.636   6.121
  131POPC     P14910   2.236   5.661   6.168
  131POPC   O1314911   2.187   5.523   6.147
  131POPC   O1414912   2.221   5.718   6.304
  131POPC   O1214913   2.143   5.751   6.080
  131POPC   O1114914   2.377   5.685   6.104
  131POPC    C114915   2.427   5.820   6.106
  131POPC    HA14916   2.524   5.822   6.161
  131POPC    HB14917   2.361   5.894   6.158
  131POPC    C214918   2.448   5.874   5.963
  131POPC    HS14919   2.491   5.976   5.975
  131POPC   O2114920   2.321   5.872   5.893
  131POPC   C2114921   2.281   5.986   5.845
  131POPC   O2214922   2.342   6.093   5.851
  131POPC   C2214923   2.146   5.976   5.773
  131POPC   H2R14924   2.143   6.058   5.699
  131POPC   H2S14925   2.067   5.995   5.848
  131POPC    C314926   2.552   5.790   5.885
  131POPC    HX14927   2.509   5.689   5.864
  131POPC    HY14928   2.639   5.776   5.953
  131POPC   O3114929   2.597   5.861   5.767
  131POPC   C3114930   2.520   5.842   5.661
  131POPC   O3214931   2.433   5.758   5.650
  131POPC   C3214932   2.552   5.947   5.552
  131POPC   H2X14933   2.621   5.902   5.479
  131POPC   H2Y14934   2.601   6.034   5.599
  131POPC   C2314935   2.121   5.841   5.701
  131POPC   H3R14936   2.135   5.758   5.774
  131POPC   H3S14937   2.198   5.827   5.621
  131POPC   C2414938   1.981   5.829   5.639
  131POPC   H4R14939   1.905   5.859   5.714
  131POPC   H4S14940   1.963   5.722   5.613
  131POPC   C2514941   1.959   5.912   5.511
  131POPC   H5R14942   1.983   6.019   5.530
  131POPC   H5S14943   1.851   5.905   5.484
  131POPC   C2614944   2.040   5.861   5.391
  131POPC   H6R14945   2.015   5.753   5.379
  131POPC   H6S14946   2.149   5.868   5.411
  131POPC   C2714947   2.009   5.935   5.260
  131POPC   H7R14948   2.054   6.037   5.265
  131POPC   H7S14949   1.898   5.947   5.250
  131POPC   C2814950   2.061   5.863   5.134
  131POPC   H8R14951   2.170   5.846   5.148
  131POPC   H8S14952   2.048   5.930   5.047
  131POPC   C2914953   1.991   5.730   5.113
  131POPC   H9114954   2.031   5.648   5.175
  131POPC  C21014955   1.888   5.704   5.030
  131POPC  H10114956   1.847   5.602   5.029
  131POPC  C21114957   1.817   5.801   4.939
  131POPC  H11R14958   1.879   5.890   4.914
  131POPC  H11S14959   1.726   5.839   4.990
  131POPC  C21214960   1.769   5.732   4.810
  131POPC  H12R14961   1.711   5.806   4.751
  131POPC  H12S14962   1.701   5.648   4.834
  131POPC  C21314963   1.882   5.684   4.719
  131POPC  H13R14964   1.943   5.606   4.769
  131POPC  H13S14965   1.947   5.771   4.695
  131POPC  C21414966   1.825   5.628   4.588
  131POPC  H14R14967   1.753   5.703   4.548
  131POPC  H14S14968   1.769   5.534   4.609
  131POPC  C21514969   1.933   5.604   4.482
  131POPC  H15R14970   2.007   5.530   4.519
  131POPC  H15S14971   1.985   5.701   4.466
  131POPC  C21614972   1.882   5.566   4.342
  131POPC  H16R14973   1.817   5.476   4.347
  131POPC  H16S14974   1.971   5.538   4.281
  131POPC  C21714975   1.812   5.683   4.272
  131POPC  H17R14976   1.874   5.774   4.285
  131POPC  H17S14977   1.715   5.706   4.322
  131POPC  C21814978   1.788   5.659   4.123
  131POPC  H18R14979   1.713   5.579   4.108
  131POPC  H18S14980   1.883   5.626   4.075
  131POPC  H18T14981   1.754   5.752   4.073
  131POPC   C3314982   2.423   5.994   5.479
  131POPC   H3X14983   2.356   6.041   5.554
  131POPC   H3Y14984   2.369   5.906   5.437
  131POPC   C3414985   2.444   6.096   5.366
  131POPC   H4X14986   2.523   6.170   5.393
  131POPC   H4Y14987   2.347   6.151   5.356
  131POPC   C3514988   2.472   6.034   5.229
  131POPC   H5X14989   2.406   5.945   5.215
  131POPC   H5Y14990   2.578   6.001   5.224
  131POPC   C3614991   2.444   6.133   5.114
  131POPC   H6X14992   2.525   6.209   5.114
  131POPC   H6Y14993   2.347   6.186   5.130
  131POPC   C3714994   2.440   6.066   4.975
  131POPC   H7X14995   2.521   5.990   4.968
  131POPC   H7Y14996   2.461   6.145   4.900
  131POPC   C3814997   2.306   6.003   4.934
  131POPC   H8X14998   2.222   6.072   4.955
  131POPC   H8Y14999   2.291   5.910   4.993
  131POPC   C3915000   2.310   5.968   4.785
  131POPC   H9X15001   2.398   5.904   4.771
  131POPC   H9Y15002   2.326   6.059   4.724
  131POPC  C31015003   2.190   5.889   4.731
  131POPC  H10X15004   2.109   5.961   4.703
  131POPC  H10Y15005   2.149   5.821   4.809
  131POPC  C31115006   2.228   5.804   4.608
  131POPC  H11X15007   2.134   5.768   4.565
  131POPC  H11Y15008   2.285   5.714   4.640
  131POPC  C31215009   2.307   5.879   4.499
  131POPC  H12X15010   2.415   5.874   4.524
  131POPC  H12Y15011   2.277   5.986   4.499
  131POPC  C31315012   2.284   5.824   4.356
  131POPC  H13X15013   2.281   5.713   4.359
  131POPC  H13Y15014   2.371   5.854   4.293
  131POPC  C31415015   2.156   5.880   4.291
  131POPC  H14X15016   2.169   5.989   4.272
  131POPC  H14Y15017   2.073   5.870   4.364
  131POPC  C31515018   2.115   5.811   4.160
  131POPC  H15X15019   2.015   5.852   4.129
  131POPC  H15Y15020   2.101   5.703   4.180
  131POPC  C31615021   2.211   5.829   4.042
  131POPC  H16X15022   2.315   5.804   4.071
  131POPC  H16Y15023   2.207   5.934   4.007
  131POPC  H16Z15024   2.183   5.765   3.957
  132POPC     N15025   2.919   1.206   6.338
  132POPC   C1215026   3.043   1.227   6.250
  132POPC  H12A15027   3.128   1.184   6.300
  132POPC  H12B15028   3.062   1.334   6.241
  132POPC   C1315029   2.869   1.065   6.328
  132POPC  H13A15030   2.771   1.056   6.375
  132POPC  H13B15031   2.855   1.039   6.223
  132POPC  H13C15032   2.937   0.995   6.373
  132POPC   C1415033   2.949   1.238   6.481
  132POPC  H14A15034   2.958   1.346   6.498
  132POPC  H14B15035   2.867   1.204   6.544
  132POPC  H14C15036   3.038   1.189   6.518
  132POPC   C1515037   2.811   1.296   6.289
  132POPC  H15A15038   2.825   1.397   6.327
  132POPC  H15B15039   2.714   1.259   6.318
  132POPC  H15C15040   2.817   1.298   6.180
  132POPC   C1115041   3.036   1.176   6.104
  132POPC  H11A15042   3.010   1.068   6.101
  132POPC  H11B15043   3.138   1.183   6.058
  132POPC     P15044   2.984   1.391   5.968
  132POPC   O1315045   3.044   1.466   6.080
  132POPC   O1415046   2.869   1.458   5.904
  132POPC   O1215047   2.939   1.250   6.028
  132POPC   O1115048   3.095   1.351   5.861
  132POPC    C115049   3.124   1.439   5.753
  132POPC    HA15050   3.221   1.407   5.709
  132POPC    HB15051   3.135   1.544   5.787
  132POPC    C215052   3.021   1.432   5.636
  132POPC    HS15053   2.921   1.465   5.675
  132POPC   O2115054   3.019   1.296   5.587
  132POPC   C2115055   2.898   1.249   5.560
  132POPC   O2215056   2.796   1.314   5.553
  132POPC   C2215057   2.904   1.100   5.526
  132POPC   H2R15058   2.799   1.065   5.511
  132POPC   H2S15059   2.946   1.046   5.612
  132POPC    C315060   3.063   1.536   5.528
  132POPC    HX15061   3.170   1.519   5.504
  132POPC    HY15062   3.061   1.638   5.573
  132POPC   O3115063   2.986   1.527   5.405
  132POPC   C3115064   2.870   1.592   5.415
  132POPC   O3215065   2.832   1.652   5.514
  132POPC   C3215066   2.797   1.594   5.281
  132POPC   H2X15067   2.867   1.612   5.199
  132POPC   H2Y15068   2.731   1.683   5.285
  132POPC   C2315069   2.987   1.078   5.398
  132POPC   H3R15070   3.092   1.108   5.420
  132POPC   H3S15071   2.951   1.148   5.320
  132POPC   C2415072   2.988   0.932   5.348
  132POPC   H4R15073   2.887   0.887   5.351
  132POPC   H4S15074   3.048   0.877   5.422
  132POPC   C2515075   3.054   0.905   5.211
  132POPC   H5R15076   2.976   0.902   5.132
  132POPC   H5S15077   3.097   0.802   5.211
  132POPC   C2615078   3.162   1.005   5.169
  132POPC   H6R15079   3.131   1.107   5.197
  132POPC   H6S15080   3.172   1.007   5.059
  132POPC   C2715081   3.300   0.974   5.229
  132POPC   H7R15082   3.348   0.897   5.164
  132POPC   H7S15083   3.288   0.929   5.330
  132POPC   C2815084   3.393   1.096   5.237
  132POPC   H8R15085   3.398   1.145   5.137
  132POPC   H8S15086   3.495   1.058   5.260
  132POPC   C2915087   3.350   1.192   5.346
  132POPC   H9115088   3.379   1.162   5.448
  132POPC  C21015089   3.280   1.306   5.329
  132POPC  H10115090   3.248   1.359   5.420
  132POPC  C21115091   3.226   1.363   5.200
  132POPC  H11R15092   3.115   1.370   5.206
  132POPC  H11S15093   3.249   1.298   5.113
  132POPC  C21215094   3.280   1.503   5.166
  132POPC  H12R15095   3.391   1.497   5.163
  132POPC  H12S15096   3.252   1.576   5.246
  132POPC  C21315097   3.230   1.556   5.030
  132POPC  H13R15098   3.242   1.476   4.954
  132POPC  H13S15099   3.294   1.642   5.000
  132POPC  C21415100   3.085   1.603   5.036
  132POPC  H14R15101   3.078   1.712   5.013
  132POPC  H14S15102   3.054   1.589   5.141
  132POPC  C21515103   2.986   1.525   4.947
  132POPC  H15R15104   2.883   1.556   4.976
  132POPC  H15S15105   2.996   1.416   4.967
  132POPC  C21615106   2.997   1.550   4.796
  132POPC  H16R15107   3.096   1.515   4.759
  132POPC  H16S15108   2.990   1.659   4.776
  132POPC  C21715109   2.886   1.478   4.719
  132POPC  H17R15110   2.786   1.510   4.758
  132POPC  H17S15111   2.894   1.369   4.738
  132POPC  C21815112   2.890   1.503   4.568
  132POPC  H18R15113   2.817   1.438   4.515
  132POPC  H18S15114   2.992   1.483   4.528
  132POPC  H18T15115   2.862   1.608   4.546
  132POPC   C3315116   2.713   1.468   5.254
  132POPC   H3X15117   2.625   1.507   5.200
  132POPC   H3Y15118   2.677   1.422   5.349
  132POPC   C3415119   2.786   1.365   5.165
  132POPC   H4X15120   2.893   1.364   5.195
  132POPC   H4Y15121   2.780   1.398   5.059
  132POPC   C3515122   2.737   1.219   5.169
  132POPC   H5X15123   2.637   1.204   5.124
  132POPC   H5Y15124   2.729   1.188   5.276
  132POPC   C3615125   2.835   1.122   5.099
  132POPC   H6X15126   2.817   1.022   5.142
  132POPC   H6Y15127   2.938   1.156   5.120
  132POPC   C3715128   2.827   1.112   4.947
  132POPC   H7X15129   2.829   1.216   4.908
  132POPC   H7Y15130   2.731   1.063   4.919
  132POPC   C3815131   2.947   1.044   4.880
  132POPC   H8X15132   2.953   0.937   4.906
  132POPC   H8Y15133   3.040   1.094   4.915
  132POPC   C3915134   2.941   1.063   4.727
  132POPC   H9X15135   3.024   1.009   4.677
  132POPC   H9Y15136   2.957   1.172   4.709
  132POPC  C31015137   2.805   1.023   4.667
  132POPC  H10X15138   2.724   1.082   4.716
  132POPC  H10Y15139   2.788   0.915   4.692
  132POPC  C31115140   2.788   1.042   4.516
  132POPC  H11X15141   2.680   1.058   4.495
  132POPC  H11Y15142   2.815   0.948   4.464
  132POPC  C31215143   2.868   1.157   4.452
  132POPC  H12X15144   2.963   1.179   4.505
  132POPC  H12Y15145   2.805   1.248   4.456
  132POPC  C31315146   2.908   1.125   4.307
  132POPC  H13X15147   2.816   1.099   4.250
  132POPC  H13Y15148   2.973   1.035   4.305
  132POPC  C31415149   2.977   1.243   4.238
  132POPC  H14X15150   3.082   1.252   4.273
  132POPC  H14Y15151   2.926   1.336   4.271
  132POPC  C31515152   2.967   1.238   4.084
  132POPC  H15X15153   3.001   1.336   4.043
  132POPC  H15Y15154   2.860   1.225   4.063
  132POPC  C31615155   3.030   1.124   4.006
  132POPC  H16X15156   2.999   1.025   4.046
  132POPC  H16Y15157   3.139   1.132   4.009
  132POPC  H16Z15158   2.999   1.130   3.900
  133POPC     N15159   2.367   1.408   6.217
  133POPC   C1215160   2.323   1.518   6.121
  133POPC  H12A15161   2.391   1.516   6.037
  133POPC  H12B15162   2.333   1.613   6.172
  133POPC   C1315163   2.364   1.273   6.153
  133POPC  H13A15164   2.268   1.252   6.106
  133POPC  H13B15165   2.440   1.257   6.077
  133POPC  H13C15166   2.384   1.193   6.224
  133POPC   C1415167   2.506   1.437   6.262
  133POPC  H14A15168   2.510   1.522   6.329
  133POPC  H14B15169   2.544   1.352   6.316
  133POPC  H14C15170   2.570   1.459   6.177
  133POPC   C1515171   2.278   1.408   6.336
  133POPC  H15A15172   2.174   1.412   6.302
  133POPC  H15B15173   2.294   1.496   6.397
  133POPC  H15C15174   2.292   1.320   6.397
  133POPC   C1115175   2.178   1.517   6.069
  133POPC  H11A15176   2.163   1.421   6.013
  133POPC  H11B15177   2.166   1.600   5.996
  133POPC     P15178   1.930   1.514   6.145
  133POPC   O1315179   1.888   1.623   6.054
  133POPC   O1415180   1.856   1.493   6.271
  133POPC   O1215181   2.085   1.532   6.177
  133POPC   O1115182   1.945   1.376   6.072
  133POPC    C115183   1.976   1.261   6.151
  133POPC    HA15184   1.932   1.264   6.254
  133POPC    HB15185   2.086   1.249   6.164
  133POPC    C215186   1.913   1.141   6.079
  133POPC    HS15187   1.942   1.049   6.135
  133POPC   O2115188   1.952   1.128   5.941
  133POPC   C2115189   2.073   1.165   5.905
  133POPC   O2215190   2.175   1.155   5.969
  133POPC   C2215191   2.065   1.231   5.766
  133POPC   H2R15192   2.147   1.305   5.757
  133POPC   H2S15193   1.968   1.285   5.761
  133POPC    C315194   1.758   1.157   6.089
  133POPC    HX15195   1.735   1.168   6.198
  133POPC    HY15196   1.706   1.068   6.054
  133POPC   O3115197   1.704   1.273   6.025
  133POPC   C3115198   1.694   1.277   5.894
  133POPC   O3215199   1.725   1.188   5.816
  133POPC   C3215200   1.623   1.408   5.858
  133POPC   H2X15201   1.679   1.492   5.906
  133POPC   H2Y15202   1.523   1.405   5.905
  133POPC   C2315203   2.074   1.128   5.651
  133POPC   H3R15204   2.000   1.047   5.672
  133POPC   H3S15205   2.175   1.083   5.648
  133POPC   C2415206   2.040   1.184   5.512
  133POPC   H4R15207   1.957   1.257   5.520
  133POPC   H4S15208   2.003   1.100   5.450
  133POPC   C2515209   2.161   1.246   5.438
  133POPC   H5R15210   2.255   1.197   5.469
  133POPC   H5S15211   2.167   1.354   5.466
  133POPC   C2615212   2.147   1.232   5.285
  133POPC   H6R15213   2.043   1.266   5.260
  133POPC   H6S15214   2.154   1.125   5.254
  133POPC   C2715215   2.244   1.319   5.203
  133POPC   H7R15216   2.256   1.416   5.256
  133POPC   H7S15217   2.196   1.338   5.105
  133POPC   C2815218   2.383   1.264   5.169
  133POPC   H8R15219   2.375   1.167   5.115
  133POPC   H8S15220   2.438   1.244   5.263
  133POPC   C2915221   2.447   1.376   5.088
  133POPC   H9115222   2.433   1.473   5.138
  133POPC  C21015223   2.512   1.380   4.970
  133POPC  H10115224   2.543   1.480   4.933
  133POPC  C21115225   2.547   1.272   4.871
  133POPC  H11R15226   2.523   1.169   4.907
  133POPC  H11S15227   2.655   1.274   4.846
  133POPC  C21215228   2.476   1.298   4.738
  133POPC  H12R15229   2.489   1.212   4.669
  133POPC  H12S15230   2.520   1.388   4.688
  133POPC  C21315231   2.328   1.323   4.761
  133POPC  H13R15232   2.284   1.337   4.661
  133POPC  H13S15233   2.314   1.419   4.816
  133POPC  C21415234   2.258   1.209   4.837
  133POPC  H14R15235   2.164   1.246   4.880
  133POPC  H14S15236   2.315   1.173   4.924
  133POPC  C21515237   2.232   1.092   4.743
  133POPC  H15R15238   2.315   1.019   4.745
  133POPC  H15S15239   2.236   1.140   4.643
  133POPC  C21615240   2.096   1.024   4.752
  133POPC  H16R15241   2.026   1.087   4.809
  133POPC  H16S15242   2.107   0.928   4.807
  133POPC  C21715243   2.039   1.002   4.611
  133POPC  H17R15244   2.084   0.911   4.568
  133POPC  H17S15245   2.071   1.085   4.544
  133POPC  C21815246   1.886   0.998   4.601
  133POPC  H18R15247   1.858   0.968   4.498
  133POPC  H18S15248   1.844   1.099   4.620
  133POPC  H18T15249   1.841   0.928   4.673
  133POPC   C3315250   1.611   1.434   5.707
  133POPC   H3X15251   1.551   1.527   5.693
  133POPC   H3Y15252   1.559   1.351   5.656
  133POPC   C3415253   1.749   1.457   5.645
  133POPC   H4X15254   1.806   1.362   5.647
  133POPC   H4Y15255   1.805   1.531   5.706
  133POPC   C3515256   1.743   1.505   5.500
  133POPC   H5X15257   1.670   1.589   5.490
  133POPC   H5Y15258   1.708   1.422   5.435
  133POPC   C3615259   1.881   1.552   5.454
  133POPC   H6X15260   1.956   1.475   5.485
  133POPC   H6Y15261   1.907   1.647   5.506
  133POPC   C3715262   1.886   1.570   5.303
  133POPC   H7X15263   1.821   1.654   5.273
  133POPC   H7Y15264   1.848   1.477   5.256
  133POPC   C3815265   2.028   1.597   5.254
  133POPC   H8X15266   2.091   1.516   5.294
  133POPC   H8Y15267   2.065   1.692   5.297
  133POPC   C3915268   2.037   1.603   5.101
  133POPC   H9X15269   2.144   1.617   5.073
  133POPC   H9Y15270   1.982   1.694   5.066
  133POPC  C31015271   1.982   1.481   5.025
  133POPC  H10X15272   1.873   1.472   5.031
  133POPC  H10Y15273   2.017   1.386   5.069
  133POPC  C31115274   2.022   1.489   4.878
  133POPC  H11X15275   2.133   1.488   4.876
  133POPC  H11Y15276   1.989   1.588   4.840
  133POPC  C31215277   1.966   1.378   4.789
  133POPC  H12X15278   1.857   1.385   4.776
  133POPC  H12Y15279   1.976   1.281   4.841
  133POPC  C31315280   2.023   1.372   4.646
  133POPC  H13X15281   1.940   1.353   4.576
  133POPC  H13Y15282   2.088   1.283   4.638
  133POPC  C31415283   2.098   1.496   4.598
  133POPC  H14X15284   2.152   1.466   4.505
  133POPC  H14Y15285   2.176   1.530   4.669
  133POPC  C31515286   2.004   1.611   4.565
  133POPC  H15X15287   1.995   1.680   4.652
  133POPC  H15Y15288   1.902   1.569   4.548
  133POPC  C31615289   2.049   1.690   4.442
  133POPC  H16X15290   2.105   1.624   4.372
  133POPC  H16Y15291   2.114   1.775   4.471
  133POPC  H16Z15292   1.960   1.729   4.388
  134POPC     N15293   4.511   6.623   6.247
  134POPC   C1215294   4.645   6.658   6.311
  134POPC  H12A15295   4.712   6.572   6.295
  134POPC  H12B15296   4.635   6.669   6.417
  134POPC   C1315297   4.429   6.533   6.333
  134POPC  H13A15298   4.399   6.580   6.425
  134POPC  H13B15299   4.340   6.501   6.279
  134POPC  H13C15300   4.483   6.441   6.356
  134POPC   C1415301   4.438   6.748   6.211
  134POPC  H14A15302   4.503   6.806   6.146
  134POPC  H14B15303   4.348   6.726   6.156
  134POPC  H14C15304   4.416   6.807   6.299
  134POPC   C1515305   4.539   6.546   6.121
  134POPC  H15A15306   4.594   6.455   6.143
  134POPC  H15B15307   4.602   6.604   6.054
  134POPC  H15C15308   4.448   6.513   6.071
  134POPC   C1115309   4.718   6.783   6.257
  134POPC  H11A15310   4.815   6.796   6.310
  134POPC  H11B15311   4.659   6.874   6.282
  134POPC     P15312   4.863   6.697   6.061
  134POPC   O1315313   4.858   6.558   6.108
  134POPC   O1415314   4.984   6.778   6.094
  134POPC   O1215315   4.735   6.773   6.115
  134POPC   O1115316   4.829   6.708   5.907
  134POPC    C115317   4.908   6.797   5.829
  134POPC    HA15318   5.016   6.771   5.839
  134POPC    HB15319   4.898   6.902   5.863
  134POPC    C215320   4.874   6.781   5.679
  134POPC    HS15321   4.936   6.853   5.621
  134POPC   O2115322   4.734   6.797   5.644
  134POPC   C2115323   4.675   6.908   5.684
  134POPC   O2215324   4.727   6.997   5.748
  134POPC   C2215325   4.530   6.914   5.635
  134POPC   H2R15326   4.464   6.888   5.720
  134POPC   H2S15327   4.516   6.839   5.554
  134POPC    C315328   4.917   6.639   5.636
  134POPC    HX15329   4.854   6.569   5.697
  134POPC    HY15330   5.022   6.620   5.664
  134POPC   O3115331   4.900   6.626   5.494
  134POPC   C3115332   4.836   6.516   5.458
  134POPC   O3215333   4.824   6.415   5.526
  134POPC   C3215334   4.770   6.538   5.323
  134POPC   H2X15335   4.849   6.556   5.247
  134POPC   H2Y15336   4.707   6.629   5.331
  134POPC   C2315337   4.494   7.057   5.584
  134POPC   H3R15338   4.561   7.133   5.629
  134POPC   H3S15339   4.391   7.083   5.616
  134POPC   C2415340   4.502   7.067   5.431
  134POPC   H4R15341   4.402   7.062   5.384
  134POPC   H4S15342   4.560   6.979   5.395
  134POPC   C2515343   4.577   7.192   5.381
  134POPC   H5R15344   4.662   7.211   5.450
  134POPC   H5S15345   4.513   7.282   5.383
  134POPC   C2615346   4.636   7.167   5.242
  134POPC   H6R15347   4.650   7.058   5.225
  134POPC   H6S15348   4.737   7.213   5.239
  134POPC   C2715349   4.556   7.227   5.125
  134POPC   H7R15350   4.557   7.338   5.135
  134POPC   H7S15351   4.451   7.193   5.135
  134POPC   C2815352   4.611   7.185   4.986
  134POPC   H8R15353   4.585   7.265   4.914
  134POPC   H8S15354   4.558   7.092   4.955
  134POPC   C2915355   4.760   7.163   4.990
  134POPC   H9115356   4.813   7.253   5.024
  134POPC  C21015357   4.835   7.057   4.956
  134POPC  H10115358   4.942   7.065   4.980
  134POPC  C21115359   4.803   6.920   4.901
  134POPC  H11R15360   4.695   6.903   4.879
  134POPC  H11S15361   4.837   6.841   4.971
  134POPC  C21215362   4.888   6.910   4.772
  134POPC  H12R15363   4.994   6.925   4.801
  134POPC  H12S15364   4.860   6.989   4.699
  134POPC  C21315365   4.894   6.774   4.705
  134POPC  H13R15366   4.793   6.735   4.686
  134POPC  H13S15367   4.946   6.710   4.778
  134POPC  C21415368   4.976   6.768   4.576
  134POPC  H14R15369   5.013   6.665   4.560
  134POPC  H14S15370   5.065   6.832   4.587
  134POPC  C21515371   4.895   6.807   4.452
  134POPC  H15R15372   4.814   6.876   4.483
  134POPC  H15S15373   4.846   6.716   4.412
  134POPC  C21615374   4.978   6.874   4.343
  134POPC  H16R15375   5.080   6.898   4.379
  134POPC  H16S15376   4.930   6.972   4.318
  134POPC  C21715377   4.987   6.788   4.218
  134POPC  H17R15378   4.887   6.746   4.193
  134POPC  H17S15379   5.056   6.703   4.236
  134POPC  C21815380   5.035   6.871   4.102
  134POPC  H18R15381   5.050   6.816   4.007
  134POPC  H18S15382   5.128   6.924   4.130
  134POPC  H18T15383   4.958   6.946   4.084
  134POPC   C3315384   4.682   6.417   5.285
  134POPC   H3X15385   4.618   6.445   5.199
  134POPC   H3Y15386   4.611   6.393   5.369
  134POPC   C3415387   4.761   6.290   5.250
  134POPC   H4X15388   4.688   6.218   5.209
  134POPC   H4Y15389   4.805   6.246   5.342
  134POPC   C3515390   4.870   6.306   5.144
  134POPC   H5X15391   4.911   6.206   5.117
  134POPC   H5Y15392   4.954   6.368   5.183
  134POPC   C3615393   4.810   6.371   5.020
  134POPC   H6X15394   4.762   6.467   5.047
  134POPC   H6Y15395   4.730   6.304   4.979
  134POPC   C3715396   4.912   6.404   4.914
  134POPC   H7X15397   4.956   6.312   4.870
  134POPC   H7Y15398   4.995   6.463   4.959
  134POPC   C3815399   4.845   6.488   4.806
  134POPC   H8X15400   4.919   6.507   4.725
  134POPC   H8Y15401   4.811   6.583   4.853
  134POPC   C3915402   4.720   6.424   4.746
  134POPC   H9X15403   4.634   6.430   4.816
  134POPC   H9Y15404   4.745   6.317   4.737
  134POPC  C31015405   4.681   6.486   4.611
  134POPC  H10X15406   4.637   6.409   4.544
  134POPC  H10Y15407   4.770   6.525   4.558
  134POPC  C31115408   4.573   6.594   4.624
  134POPC  H11X15409   4.617   6.692   4.598
  134POPC  H11Y15410   4.537   6.602   4.728
  134POPC  C31215411   4.452   6.569   4.532
  134POPC  H12X15412   4.384   6.498   4.584
  134POPC  H12Y15413   4.483   6.520   4.437
  134POPC  C31315414   4.380   6.700   4.501
  134POPC  H13X15415   4.412   6.775   4.577
  134POPC  H13Y15416   4.270   6.688   4.513
  134POPC  C31415417   4.406   6.757   4.360
  134POPC  H14X15418   4.375   6.864   4.360
  134POPC  H14Y15419   4.341   6.704   4.286
  134POPC  C31515420   4.551   6.747   4.312
  134POPC  H15X15421   4.562   6.661   4.242
  134POPC  H15Y15422   4.620   6.728   4.397
  134POPC  C31615423   4.598   6.875   4.245
  134POPC  H16X15424   4.587   6.963   4.313
  134POPC  H16Y15425   4.538   6.895   4.154
  134POPC  H16Z15426   4.705   6.867   4.219
  135POPC     N15427   6.360   2.278   6.096
  135POPC   C1215428   6.368   2.273   6.248
  135POPC  H12A15429   6.276   2.309   6.292
  135POPC  H12B15430   6.447   2.338   6.282
  135POPC   C1315431   6.304   2.148   6.047
  135POPC  H13A15432   6.278   2.149   5.942
  135POPC  H13B15433   6.377   2.068   6.062
  135POPC  H13C15434   6.218   2.119   6.106
  135POPC   C1415435   6.273   2.391   6.052
  135POPC  H14A15436   6.304   2.487   6.091
  135POPC  H14B15437   6.271   2.397   5.943
  135POPC  H14C15438   6.171   2.374   6.085
  135POPC   C1515439   6.501   2.289   6.042
  135POPC  H15A15440   6.556   2.373   6.080
  135POPC  H15B15441   6.503   2.290   5.934
  135POPC  H15C15442   6.558   2.200   6.076
  135POPC   C1115443   6.400   2.136   6.309
  135POPC  H11A15444   6.314   2.066   6.295
  135POPC  H11B15445   6.417   2.145   6.418
  135POPC     P15446   6.549   1.935   6.245
  135POPC   O1315447   6.492   1.872   6.366
  135POPC   O1415448   6.693   1.919   6.224
  135POPC   O1215449   6.520   2.091   6.249
  135POPC   O1115450   6.467   1.896   6.114
  135POPC    C115451   6.533   1.815   6.014
  135POPC    HA15452   6.466   1.728   5.993
  135POPC    HB15453   6.628   1.767   6.049
  135POPC    C215454   6.565   1.886   5.877
  135POPC    HS15455   6.674   1.870   5.859
  135POPC   O2115456   6.528   2.026   5.869
  135POPC   C2115457   6.591   2.087   5.767
  135POPC   O2215458   6.705   2.064   5.730
  135POPC   C2215459   6.492   2.178   5.692
  135POPC   H2R15460   6.489   2.277   5.741
  135POPC   H2S15461   6.393   2.129   5.700
  135POPC    C315462   6.482   1.809   5.770
  135POPC    HX15463   6.376   1.820   5.801
  135POPC    HY15464   6.509   1.702   5.779
  135POPC   O3115465   6.492   1.858   5.634
  135POPC   C3115466   6.590   1.802   5.564
  135POPC   O3215467   6.674   1.726   5.606
  135POPC   C3215468   6.584   1.846   5.418
  135POPC   H2X15469   6.521   1.935   5.409
  135POPC   H2Y15470   6.537   1.764   5.360
  135POPC   C2315471   6.528   2.190   5.542
  135POPC   H3R15472   6.576   2.095   5.512
  135POPC   H3S15473   6.603   2.271   5.526
  135POPC   C2415474   6.406   2.211   5.449
  135POPC   H4R15475   6.359   2.305   5.486
  135POPC   H4S15476   6.334   2.128   5.460
  135POPC   C2515477   6.433   2.236   5.299
  135POPC   H5R15478   6.529   2.289   5.286
  135POPC   H5S15479   6.352   2.304   5.263
  135POPC   C2615480   6.421   2.119   5.200
  135POPC   H6R15481   6.485   2.035   5.234
  135POPC   H6S15482   6.460   2.153   5.102
  135POPC   C2715483   6.276   2.073   5.177
  135POPC   H7R15484   6.218   2.163   5.146
  135POPC   H7S15485   6.237   2.034   5.273
  135POPC   C2815486   6.254   1.967   5.069
  135POPC   H8R15487   6.284   2.011   4.972
  135POPC   H8S15488   6.146   1.940   5.063
  135POPC   C2915489   6.339   1.851   5.115
  135POPC   H9115490   6.312   1.815   5.216
  135POPC  C21015491   6.438   1.789   5.050
  135POPC  H10115492   6.500   1.721   5.109
  135POPC  C21115493   6.496   1.812   4.915
  135POPC  H11R15494   6.558   1.724   4.886
  135POPC  H11S15495   6.567   1.897   4.922
  135POPC  C21215496   6.390   1.830   4.805
  135POPC  H12R15497   6.349   1.933   4.806
  135POPC  H12S15498   6.304   1.762   4.824
  135POPC  C21315499   6.442   1.807   4.664
  135POPC  H13R15500   6.459   1.700   4.646
  135POPC  H13S15501   6.541   1.855   4.651
  135POPC  C21415502   6.346   1.862   4.558
  135POPC  H14R15503   6.370   1.813   4.461
  135POPC  H14S15504   6.364   1.970   4.546
  135POPC  C21515505   6.195   1.845   4.588
  135POPC  H15R15506   6.162   1.927   4.656
  135POPC  H15S15507   6.174   1.750   4.641
  135POPC  C21615508   6.114   1.849   4.459
  135POPC  H16R15509   6.005   1.840   4.481
  135POPC  H16S15510   6.142   1.762   4.396
  135POPC  C21715511   6.142   1.977   4.381
  135POPC  H17R15512   6.251   1.988   4.360
  135POPC  H17S15513   6.110   2.065   4.441
  135POPC  C21815514   6.072   1.973   4.247
  135POPC  H18R15515   6.113   1.889   4.189
  135POPC  H18S15516   6.084   2.067   4.190
  135POPC  H18T15517   5.964   1.955   4.262
  135POPC   C3315518   6.729   1.867   5.369
  135POPC   H3X15519   6.763   1.766   5.341
  135POPC   H3Y15520   6.795   1.904   5.451
  135POPC   C3415521   6.747   1.961   5.248
  135POPC   H4X15522   6.660   1.951   5.180
  135POPC   H4Y15523   6.836   1.930   5.191
  135POPC   C3515524   6.773   2.106   5.292
  135POPC   H5X15525   6.867   2.114   5.349
  135POPC   H5Y15526   6.691   2.131   5.361
  135POPC   C3615527   6.763   2.213   5.182
  135POPC   H6X15528   6.751   2.312   5.233
  135POPC   H6Y15529   6.668   2.193   5.128
  135POPC   C3715530   6.878   2.223   5.082
  135POPC   H7X15531   6.898   2.123   5.038
  135POPC   H7Y15532   6.970   2.255   5.135
  135POPC   C3815533   6.847   2.324   4.969
  135POPC   H8X15534   6.928   2.317   4.892
  135POPC   H8Y15535   6.849   2.427   5.011
  135POPC   C3915536   6.711   2.305   4.899
  135POPC   H9X15537   6.703   2.373   4.812
  135POPC   H9Y15538   6.630   2.333   4.970
  135POPC  C31015539   6.686   2.161   4.853
  135POPC  H10X15540   6.704   2.091   4.937
  135POPC  H10Y15541   6.757   2.133   4.772
  135POPC  C31115542   6.541   2.136   4.810
  135POPC  H11X15543   6.470   2.155   4.893
  135POPC  H11Y15544   6.537   2.029   4.784
  135POPC  C31215545   6.493   2.203   4.681
  135POPC  H12X15546   6.498   2.313   4.690
  135POPC  H12Y15547   6.386   2.174   4.667
  135POPC  C31315548   6.575   2.154   4.563
  135POPC  H13X15549   6.585   2.043   4.568
  135POPC  H13Y15550   6.678   2.196   4.570
  135POPC  C31415551   6.513   2.189   4.428
  135POPC  H14X15552   6.498   2.299   4.424
  135POPC  H14Y15553   6.412   2.142   4.417
  135POPC  C31515554   6.603   2.144   4.313
  135POPC  H15X15555   6.709   2.167   4.339
  135POPC  H15Y15556   6.578   2.205   4.223
  135POPC  C31615557   6.589   1.996   4.277
  135POPC  H16X15558   6.487   1.976   4.238
  135POPC  H16Y15559   6.606   1.932   4.366
  135POPC  H16Z15560   6.663   1.969   4.199
  136POPC     N15561   6.748   4.710   6.091
  136POPC   C1215562   6.846   4.804   6.020
  136POPC  H12A15563   6.793   4.887   5.975
  136POPC  H12B15564   6.897   4.751   5.940
  136POPC   C1315565   6.826   4.598   6.155
  136POPC  H13A15566   6.915   4.579   6.095
  136POPC  H13B15567   6.869   4.629   6.251
  136POPC  H13C15568   6.767   4.510   6.166
  136POPC   C1415569   6.680   4.784   6.201
  136POPC  H14A15570   6.605   4.725   6.252
  136POPC  H14B15571   6.756   4.813   6.275
  136POPC  H14C15572   6.637   4.876   6.168
  136POPC   C1515573   6.652   4.649   5.994
  136POPC  H15A15574   6.705   4.584   5.923
  136POPC  H15B15575   6.603   4.723   5.933
  136POPC  H15C15576   6.580   4.585   6.045
  136POPC   C1115577   6.960   4.862   6.107
  136POPC  H11A15578   6.917   4.911   6.198
  136POPC  H11B15579   7.010   4.942   6.049
  136POPC     P15580   7.160   4.794   6.252
  136POPC   O1315581   7.271   4.694   6.255
  136POPC   O1415582   7.086   4.813   6.379
  136POPC   O1215583   7.055   4.760   6.139
  136POPC   O1115584   7.218   4.931   6.197
  136POPC    C115585   7.340   4.932   6.122
  136POPC    HA15586   7.418   4.865   6.164
  136POPC    HB15587   7.381   5.033   6.131
  136POPC    C215588   7.327   4.907   5.969
  136POPC    HS15589   7.424   4.940   5.924
  136POPC   O2115590   7.218   4.977   5.909
  136POPC   C2115591   7.221   5.105   5.913
  136POPC   O2215592   7.310   5.176   5.955
  136POPC   C2215593   7.093   5.155   5.855
  136POPC   H2R15594   7.102   5.264   5.845
  136POPC   H2S15595   7.015   5.129   5.930
  136POPC    C315596   7.304   4.762   5.926
  136POPC    HX15597   7.197   4.735   5.940
  136POPC    HY15598   7.365   4.695   5.991
  136POPC   O3115599   7.347   4.753   5.790
  136POPC   C3115600   7.261   4.771   5.692
  136POPC   O3215601   7.140   4.757   5.700
  136POPC   C3215602   7.337   4.797   5.562
  136POPC   H2X15603   7.326   4.705   5.501
  136POPC   H2Y15604   7.445   4.812   5.585
  136POPC   C2315605   7.052   5.097   5.720
  136POPC   H3R15606   7.058   4.986   5.721
  136POPC   H3S15607   7.117   5.136   5.638
  136POPC   C2415608   6.907   5.139   5.700
  136POPC   H4R15609   6.904   5.250   5.708
  136POPC   H4S15610   6.846   5.096   5.782
  136POPC   C2515611   6.846   5.104   5.565
  136POPC   H5R15612   6.887   5.180   5.496
  136POPC   H5S15613   6.737   5.114   5.566
  136POPC   C2615614   6.874   4.967   5.509
  136POPC   H6R15615   6.797   4.898   5.550
  136POPC   H6S15616   6.974   4.931   5.540
  136POPC   C2715617   6.868   4.968   5.356
  136POPC   H7R15618   6.954   5.023   5.314
  136POPC   H7S15619   6.774   5.019   5.323
  136POPC   C2815620   6.870   4.827   5.301
  136POPC   H8R15621   6.856   4.830   5.192
  136POPC   H8S15622   6.777   4.780   5.340
  136POPC   C2915623   6.995   4.752   5.341
  136POPC   H9115624   7.021   4.756   5.448
  136POPC  C21015625   7.071   4.677   5.260
  136POPC  H10115626   7.163   4.631   5.299
  136POPC  C21115627   7.041   4.656   5.113
  136POPC  H11R15628   6.935   4.623   5.100
  136POPC  H11S15629   7.106   4.577   5.071
  136POPC  C21215630   7.062   4.786   5.034
  136POPC  H12R15631   7.153   4.774   4.970
  136POPC  H12S15632   7.082   4.870   5.104
  136POPC  C21315633   6.947   4.835   4.945
  136POPC  H13R15634   6.982   4.925   4.890
  136POPC  H13S15635   6.859   4.869   5.002
  136POPC  C21415636   6.903   4.729   4.846
  136POPC  H14R15637   6.827   4.663   4.893
  136POPC  H14S15638   6.991   4.667   4.818
  136POPC  C21515639   6.846   4.794   4.720
  136POPC  H15R15640   6.836   4.714   4.645
  136POPC  H15S15641   6.919   4.869   4.680
  136POPC  C21615642   6.712   4.864   4.744
  136POPC  H16R15643   6.728   4.953   4.810
  136POPC  H16S15644   6.643   4.794   4.797
  136POPC  C21715645   6.647   4.910   4.613
  136POPC  H17R15646   6.716   4.979   4.561
  136POPC  H17S15647   6.554   4.967   4.638
  136POPC  C21815648   6.610   4.793   4.520
  136POPC  H18R15649   6.568   4.831   4.425
  136POPC  H18S15650   6.534   4.728   4.570
  136POPC  H18T15651   6.698   4.732   4.495
  136POPC   C3315652   7.285   4.918   5.479
  136POPC   H3X15653   7.296   5.011   5.537
  136POPC   H3Y15654   7.177   4.904   5.459
  136POPC   C3415655   7.357   4.929   5.343
  136POPC   H4X15656   7.366   4.825   5.303
  136POPC   H4Y15657   7.460   4.967   5.358
  136POPC   C3515658   7.285   5.012   5.234
  136POPC   H5X15659   7.300   5.121   5.249
  136POPC   H5Y15660   7.176   4.993   5.241
  136POPC   C3615661   7.335   4.974   5.094
  136POPC   H6X15662   7.323   4.864   5.084
  136POPC   H6Y15663   7.444   4.996   5.086
  136POPC   C3715664   7.262   5.037   4.975
  136POPC   H7X15665   7.271   5.147   4.977
  136POPC   H7Y15666   7.154   5.015   4.979
  136POPC   C3815667   7.316   4.980   4.843
  136POPC   H8X15668   7.335   4.870   4.852
  136POPC   H8Y15669   7.414   5.028   4.823
  136POPC   C3915670   7.225   5.002   4.722
  136POPC   H9X15671   7.193   5.109   4.721
  136POPC   H9Y15672   7.133   4.940   4.731
  136POPC  C31015673   7.298   4.969   4.591
  136POPC  H10X15674   7.307   4.859   4.579
  136POPC  H10Y15675   7.401   5.011   4.597
  136POPC  C31115676   7.229   5.031   4.470
  136POPC  H11X15677   7.213   5.139   4.489
  136POPC  H11Y15678   7.129   4.984   4.455
  136POPC  C31215679   7.315   5.017   4.344
  136POPC  H12X15680   7.337   4.909   4.324
  136POPC  H12Y15681   7.414   5.065   4.364
  136POPC  C31315682   7.252   5.084   4.221
  136POPC  H13X15683   7.330   5.095   4.142
  136POPC  H13Y15684   7.220   5.187   4.251
  136POPC  C31415685   7.131   5.010   4.162
  136POPC  H14X15686   7.089   5.071   4.079
  136POPC  H14Y15687   7.052   5.000   4.240
  136POPC  C31515688   7.165   4.871   4.108
  136POPC  H15X15689   7.209   4.812   4.191
  136POPC  H15Y15690   7.245   4.880   4.030
  136POPC  C31615691   7.047   4.792   4.050
  136POPC  H16X15692   7.081   4.694   4.011
  136POPC  H16Y15693   6.999   4.848   3.967
  136POPC  H16Z15694   6.971   4.773   4.129
  137POPC     N15695   3.039   7.183   6.160
  137POPC   C1215696   3.130   7.147   6.043
  137POPC  H12A15697   3.118   7.221   5.964
  137POPC  H12B15698   3.099   7.051   6.001
  137POPC   C1315699   3.115   7.268   6.258
  137POPC  H13A15700   3.064   7.276   6.352
  137POPC  H13B15701   3.212   7.219   6.275
  137POPC  H13C15702   3.133   7.366   6.217
  137POPC   C1415703   2.920   7.256   6.111
  137POPC  H14A15704   2.945   7.349   6.061
  137POPC  H14B15705   2.861   7.195   6.042
  137POPC  H14C15706   2.853   7.278   6.194
  137POPC   C1515707   2.997   7.059   6.233
  137POPC  H15A15708   2.928   7.002   6.174
  137POPC  H15B15709   2.952   7.084   6.329
  137POPC  H15C15710   3.083   6.994   6.253
  137POPC   C1115711   3.281   7.135   6.076
  137POPC  H11A15712   3.323   7.236   6.093
  137POPC  H11B15713   3.337   7.093   5.989
  137POPC     P15714   3.320   6.902   6.190
  137POPC   O1315715   3.243   6.837   6.299
  137POPC   O1415716   3.464   6.872   6.180
  137POPC   O1215717   3.299   7.058   6.195
  137POPC   O1115718   3.252   6.861   6.055
  137POPC    C115719   3.311   6.753   5.979
  137POPC    HA15720   3.270   6.655   6.014
  137POPC    HB15721   3.423   6.748   5.985
  137POPC    C215722   3.272   6.773   5.832
  137POPC    HS15723   3.295   6.678   5.778
  137POPC   O2115724   3.339   6.887   5.776
  137POPC   C2115725   3.343   6.886   5.643
  137POPC   O2215726   3.344   6.785   5.574
  137POPC   C2215727   3.326   7.029   5.591
  137POPC   H2R15728   3.412   7.088   5.625
  137POPC   H2S15729   3.235   7.074   5.635
  137POPC    C315730   3.121   6.801   5.835
  137POPC    HX15731   3.103   6.894   5.892
  137POPC    HY15732   3.073   6.718   5.892
  137POPC   O3115733   3.065   6.805   5.704
  137POPC   C3115734   3.012   6.921   5.664
  137POPC   O3215735   3.015   7.026   5.725
  137POPC   C3215736   2.940   6.887   5.534
  137POPC   H2X15737   2.852   6.826   5.560
  137POPC   H2Y15738   3.014   6.822   5.483
  137POPC   C2315739   3.317   7.032   5.437
  137POPC   H3R15740   3.223   6.983   5.402
  137POPC   H3S15741   3.402   6.972   5.398
  137POPC   C2415742   3.329   7.171   5.375
  137POPC   H4R15743   3.400   7.232   5.436
  137POPC   H4S15744   3.230   7.222   5.378
  137POPC   C2515745   3.383   7.168   5.231
  137POPC   H5R15746   3.490   7.137   5.232
  137POPC   H5S15747   3.379   7.272   5.191
  137POPC   C2615748   3.305   7.076   5.136
  137POPC   H6R15749   3.314   7.123   5.035
  137POPC   H6S15750   3.197   7.075   5.161
  137POPC   C2715751   3.360   6.931   5.127
  137POPC   H7R15752   3.353   6.880   5.225
  137POPC   H7S15753   3.467   6.936   5.099
  137POPC   C2815754   3.290   6.841   5.025
  137POPC   H8R15755   3.188   6.819   5.062
  137POPC   H8S15756   3.343   6.743   5.020
  137POPC   C2915757   3.289   6.912   4.893
  137POPC   H9115758   3.210   6.988   4.883
  137POPC  C21015759   3.374   6.898   4.791
  137POPC  H10115760   3.357   6.959   4.702
  137POPC  C21115761   3.492   6.806   4.783
  137POPC  H11R15762   3.518   6.763   4.882
  137POPC  H11S15763   3.581   6.863   4.748
  137POPC  C21215764   3.463   6.690   4.686
  137POPC  H12R15765   3.382   6.626   4.728
  137POPC  H12S15766   3.555   6.627   4.677
  137POPC  C21315767   3.422   6.736   4.545
  137POPC  H13R15768   3.505   6.797   4.501
  137POPC  H13S15769   3.333   6.802   4.550
  137POPC  C21415770   3.391   6.619   4.451
  137POPC  H14R15771   3.480   6.552   4.449
  137POPC  H14S15772   3.377   6.658   4.348
  137POPC  C21515773   3.268   6.534   4.489
  137POPC  H15R15774   3.293   6.473   4.579
  137POPC  H15S15775   3.248   6.463   4.406
  137POPC  C21615776   3.139   6.613   4.518
  137POPC  H16R15777   3.152   6.670   4.613
  137POPC  H16S15778   3.054   6.543   4.533
  137POPC  C21715779   3.104   6.713   4.407
  137POPC  H17R15780   3.086   6.658   4.311
  137POPC  H17S15781   3.193   6.777   4.391
  137POPC  C21815782   2.986   6.805   4.438
  137POPC  H18R15783   2.896   6.775   4.381
  137POPC  H18S15784   3.010   6.910   4.408
  137POPC  H18T15785   2.963   6.805   4.546
  137POPC   C3315786   2.888   6.996   5.437
  137POPC   H3X15787   2.970   7.066   5.411
  137POPC   H3Y15788   2.806   7.054   5.485
  137POPC   C3415789   2.835   6.930   5.307
  137POPC   H4X15790   2.806   7.010   5.235
  137POPC   H4Y15791   2.743   6.872   5.330
  137POPC   C3515792   2.939   6.837   5.243
  137POPC   H5X15793   2.965   6.754   5.313
  137POPC   H5Y15794   3.032   6.895   5.222
  137POPC   C3615795   2.897   6.758   5.119
  137POPC   H6X15796   2.814   6.689   5.146
  137POPC   H6Y15797   2.983   6.695   5.087
  137POPC   C3715798   2.854   6.844   5.000
  137POPC   H7X15799   2.774   6.915   5.028
  137POPC   H7Y15800   2.815   6.769   4.928
  137POPC   C3815801   2.969   6.918   4.934
  137POPC   H8X15802   3.043   6.839   4.907
  137POPC   H8Y15803   3.016   6.988   5.008
  137POPC   C3915804   2.936   6.993   4.805
  137POPC   H9X15805   2.905   6.917   4.729
  137POPC   H9Y15806   3.030   7.038   4.765
  137POPC  C31015807   2.826   7.100   4.815
  137POPC  H10X15808   2.735   7.056   4.862
  137POPC  H10Y15809   2.798   7.128   4.711
  137POPC  C31115810   2.864   7.230   4.889
  137POPC  H11X15811   2.850   7.214   4.999
  137POPC  H11Y15812   2.792   7.308   4.856
  137POPC  C31215813   3.006   7.284   4.866
  137POPC  H12X15814   3.078   7.213   4.912
  137POPC  H12Y15815   3.018   7.381   4.918
  137POPC  C31315816   3.041   7.303   4.718
  137POPC  H13X15817   3.004   7.402   4.681
  137POPC  H13Y15818   2.989   7.226   4.657
  137POPC  C31415819   3.192   7.289   4.692
  137POPC  H14X15820   3.231   7.202   4.749
  137POPC  H14Y15821   3.243   7.380   4.730
  137POPC  C31515822   3.224   7.267   4.544
  137POPC  H15X15823   3.331   7.291   4.526
  137POPC  H15Y15824   3.163   7.339   4.484
  137POPC  C31615825   3.197   7.124   4.496
  137POPC  H16X15826   3.257   7.051   4.555
  137POPC  H16Y15827   3.225   7.110   4.390
  137POPC  H16Z15828   3.090   7.097   4.508
  138POPC     N15829   6.618   5.717   5.974
  138POPC   C1215830   6.687   5.596   6.032
  138POPC  H12A15831   6.778   5.575   5.977
  138POPC  H12B15832   6.623   5.509   6.022
  138POPC   C1315833   6.497   5.745   6.059
  138POPC  H13A15834   6.419   5.672   6.040
  138POPC  H13B15835   6.528   5.735   6.164
  138POPC  H13C15836   6.458   5.846   6.045
  138POPC   C1415837   6.710   5.835   5.984
  138POPC  H14A15838   6.745   5.849   6.086
  138POPC  H14B15839   6.800   5.825   5.923
  138POPC  H14C15840   6.664   5.929   5.956
  138POPC   C1515841   6.577   5.696   5.832
  138POPC  H15A15842   6.524   5.785   5.797
  138POPC  H15B15843   6.512   5.611   5.817
  138POPC  H15C15844   6.665   5.686   5.768
  138POPC   C1115845   6.724   5.604   6.182
  138POPC  H11A15846   6.749   5.707   6.214
  138POPC  H11B15847   6.817   5.546   6.199
  138POPC     P15848   6.642   5.443   6.370
  138POPC   O1315849   6.513   5.423   6.439
  138POPC   O1415850   6.753   5.486   6.458
  138POPC   O1215851   6.616   5.553   6.258
  138POPC   O1115852   6.684   5.315   6.288
  138POPC    C115853   6.592   5.257   6.198
  138POPC    HA15854   6.576   5.325   6.111
  138POPC    HB15855   6.492   5.242   6.246
  138POPC    C215856   6.642   5.119   6.147
  138POPC    HS15857   6.630   5.050   6.233
  138POPC   O2115858   6.776   5.110   6.096
  138POPC   C2115859   6.861   5.208   6.122
  138POPC   O2215860   6.950   5.201   6.205
  138POPC   C2215861   6.852   5.320   6.014
  138POPC   H2R15862   6.755   5.369   6.026
  138POPC   H2S15863   6.853   5.273   5.915
  138POPC    C315864   6.556   5.075   6.030
  138POPC    HX15865   6.448   5.075   6.059
  138POPC    HY15866   6.587   4.972   6.001
  138POPC   O3115867   6.577   5.172   5.926
  138POPC   C3115868   6.579   5.126   5.803
  138POPC   O3215869   6.575   5.008   5.773
  138POPC   C3215870   6.576   5.248   5.710
  138POPC   H2X15871   6.680   5.281   5.690
  138POPC   H2Y15872   6.528   5.332   5.764
  138POPC   C2315873   6.973   5.415   6.034
  138POPC   H3R15874   7.055   5.341   6.033
  138POPC   H3S15875   6.975   5.457   6.136
  138POPC   C2415876   7.035   5.517   5.934
  138POPC   H4R15877   7.107   5.462   5.873
  138POPC   H4S15878   7.095   5.586   5.999
  138POPC   C2515879   6.959   5.609   5.837
  138POPC   H5R15880   7.035   5.679   5.794
  138POPC   H5S15881   6.891   5.675   5.893
  138POPC   C2615882   6.888   5.542   5.718
  138POPC   H6R15883   6.805   5.611   5.692
  138POPC   H6S15884   6.842   5.446   5.748
  138POPC   C2715885   6.973   5.530   5.590
  138POPC   H7R15886   7.023   5.431   5.582
  138POPC   H7S15887   7.055   5.605   5.595
  138POPC   C2815888   6.893   5.564   5.462
  138POPC   H8R15889   6.960   5.602   5.383
  138POPC   H8S15890   6.830   5.652   5.486
  138POPC   C2915891   6.802   5.457   5.405
  138POPC   H9115892   6.702   5.464   5.445
  138POPC  C21015893   6.829   5.349   5.328
  138POPC  H10115894   6.743   5.288   5.295
  138POPC  C21115895   6.961   5.300   5.274
  138POPC  H11R15896   6.999   5.217   5.337
  138POPC  H11S15897   7.039   5.377   5.284
  138POPC  C21215898   6.959   5.250   5.129
  138POPC  H12R15899   6.856   5.225   5.095
  138POPC  H12S15900   7.020   5.157   5.119
  138POPC  C21315901   7.020   5.358   5.041
  138POPC  H13R15902   7.131   5.355   5.049
  138POPC  H13S15903   6.986   5.456   5.082
  138POPC  C21415904   6.980   5.355   4.894
  138POPC  H14R15905   6.870   5.343   4.886
  138POPC  H14S15906   7.030   5.271   4.841
  138POPC  C21515907   7.022   5.490   4.836
  138POPC  H15R15908   7.129   5.507   4.861
  138POPC  H15S15909   6.963   5.570   4.885
  138POPC  C21615910   7.009   5.502   4.684
  138POPC  H16R15911   7.089   5.442   4.637
  138POPC  H16S15912   7.026   5.609   4.656
  138POPC  C21715913   6.877   5.455   4.625
  138POPC  H17R15914   6.792   5.509   4.673
  138POPC  H17S15915   6.864   5.346   4.645
  138POPC  C21815916   6.879   5.480   4.474
  138POPC  H18R15917   6.975   5.444   4.431
  138POPC  H18S15918   6.868   5.588   4.453
  138POPC  H18T15919   6.797   5.425   4.424
  138POPC   C3315920   6.501   5.224   5.578
  138POPC   H3X15921   6.441   5.130   5.581
  138POPC   H3Y15922   6.575   5.212   5.495
  138POPC   C3415923   6.407   5.338   5.542
  138POPC   H4X15924   6.450   5.436   5.575
  138POPC   H4Y15925   6.313   5.322   5.600
  138POPC   C3515926   6.376   5.344   5.392
  138POPC   H5X15927   6.265   5.349   5.376
  138POPC   H5Y15928   6.411   5.249   5.345
  138POPC   C3615929   6.441   5.464   5.323
  138POPC   H6X15930   6.528   5.497   5.382
  138POPC   H6Y15931   6.371   5.550   5.324
  138POPC   C3715932   6.492   5.436   5.180
  138POPC   H7X15933   6.545   5.338   5.175
  138POPC   H7Y15934   6.565   5.515   5.153
  138POPC   C3815935   6.377   5.440   5.079
  138POPC   H8X15936   6.314   5.528   5.104
  138POPC   H8Y15937   6.316   5.348   5.091
  138POPC   C3915938   6.424   5.454   4.934
  138POPC   H9X15939   6.439   5.353   4.890
  138POPC   H9Y15940   6.522   5.507   4.932
  138POPC  C31015941   6.325   5.536   4.851
  138POPC  H10X15942   6.305   5.632   4.905
  138POPC  H10Y15943   6.228   5.482   4.844
  138POPC  C31115944   6.375   5.571   4.710
  138POPC  H11X15945   6.474   5.622   4.721
  138POPC  H11Y15946   6.306   5.644   4.662
  138POPC  C31215947   6.390   5.449   4.619
  138POPC  H12X15948   6.306   5.446   4.546
  138POPC  H12Y15949   6.383   5.355   4.678
  138POPC  C31315950   6.523   5.449   4.542
  138POPC  H13X15951   6.603   5.424   4.614
  138POPC  H13Y15952   6.543   5.552   4.503
  138POPC  C31415953   6.525   5.351   4.425
  138POPC  H14X15954   6.625   5.350   4.377
  138POPC  H14Y15955   6.453   5.384   4.347
  138POPC  C31515956   6.494   5.207   4.464
  138POPC  H15X15957   6.388   5.202   4.497
  138POPC  H15Y15958   6.557   5.177   4.551
  138POPC  C31615959   6.517   5.110   4.348
  138POPC  H16X15960   6.626   5.096   4.331
  138POPC  H16Y15961   6.471   5.150   4.254
  138POPC  H16Z15962   6.472   5.011   4.369
  139POPC     N15963   7.474   4.064   6.089
  139POPC   C1215964   7.388   3.958   6.156
  139POPC  H12A15965   7.371   3.987   6.260
  139POPC  H12B15966   7.439   3.863   6.156
  139POPC   C1315967   7.505   4.030   5.946
  139POPC  H13A15968   7.564   4.108   5.901
  139POPC  H13B15969   7.559   3.936   5.933
  139POPC  H13C15970   7.412   4.022   5.889
  139POPC   C1415971   7.398   4.192   6.092
  139POPC  H14A15972   7.300   4.175   6.046
  139POPC  H14B15973   7.376   4.223   6.194
  139POPC  H14C15974   7.447   4.275   6.043
  139POPC   C1515975   7.599   4.085   6.169
  139POPC  H15A15976   7.651   4.173   6.135
  139POPC  H15B15977   7.662   3.998   6.166
  139POPC  H15C15978   7.575   4.103   6.275
  139POPC   C1115979   7.247   3.933   6.098
  139POPC  H11A15980   7.205   3.840   6.144
  139POPC  H11B15981   7.255   3.913   5.989
  139POPC     P15982   7.071   4.062   6.245
  139POPC   O1315983   7.153   4.114   6.356
  139POPC   O1415984   6.989   3.941   6.267
  139POPC   O1215985   7.162   4.045   6.118
  139POPC   O1115986   6.972   4.180   6.203
  139POPC    C115987   6.997   4.256   6.084
  139POPC    HA15988   7.104   4.257   6.053
  139POPC    HB15989   6.972   4.363   6.105
  139POPC    C215990   6.914   4.209   5.961
  139POPC    HS15991   6.805   4.221   5.985
  139POPC   O2115992   6.946   4.074   5.928
  139POPC   C2115993   6.868   3.976   5.972
  139POPC   O2215994   6.762   3.988   6.030
  139POPC   C2215995   6.935   3.843   5.936
  139POPC   H2R15996   6.867   3.761   5.967
  139POPC   H2S15997   7.028   3.835   5.997
  139POPC    C315998   6.943   4.301   5.839
  139POPC    HX15999   6.934   4.407   5.874
  139POPC    HY16000   6.865   4.290   5.763
  139POPC   O3116001   7.075   4.283   5.783
  139POPC   C3116002   7.080   4.203   5.676
  139POPC   O3216003   6.992   4.130   5.636
  139POPC   C3216004   7.210   4.232   5.602
  139POPC   H2X16005   7.292   4.175   5.649
  139POPC   H2Y16006   7.230   4.341   5.609
  139POPC   C2316007   6.970   3.832   5.786
  139POPC   H3R16008   7.040   3.914   5.757
  139POPC   H3S16009   6.877   3.845   5.728
  139POPC   C2416010   7.036   3.699   5.748
  139POPC   H4R16011   6.997   3.618   5.813
  139POPC   H4S16012   7.146   3.708   5.765
  139POPC   C2516013   7.011   3.662   5.601
  139POPC   H5R16014   6.904   3.631   5.590
  139POPC   H5S16015   7.075   3.576   5.572
  139POPC   C2616016   7.036   3.780   5.507
  139POPC   H6R16017   7.139   3.820   5.525
  139POPC   H6S16018   6.965   3.862   5.531
  139POPC   C2716019   7.020   3.743   5.360
  139POPC   H7R16020   6.918   3.702   5.342
  139POPC   H7S16021   7.093   3.662   5.337
  139POPC   C2816022   7.046   3.861   5.266
  139POPC   H8R16023   7.043   3.823   5.161
  139POPC   H8S16024   7.151   3.892   5.286
  139POPC   C2916025   6.951   3.977   5.283
  139POPC   H9116026   6.893   3.980   5.376
  139POPC  C21016027   6.937   4.077   5.195
  139POPC  H10116028   6.866   4.159   5.216
  139POPC  C21116029   7.013   4.089   5.066
  139POPC  H11R16030   7.100   4.019   5.062
  139POPC  H11S16031   7.055   4.191   5.056
  139POPC  C21216032   6.924   4.058   4.945
  139POPC  H12R16033   6.836   4.125   4.946
  139POPC  H12S16034   6.886   3.954   4.947
  139POPC  C21316035   6.997   4.083   4.813
  139POPC  H13R16036   7.067   3.999   4.796
  139POPC  H13S16037   7.057   4.177   4.823
  139POPC  C21416038   6.902   4.103   4.694
  139POPC  H14R16039   6.861   4.206   4.701
  139POPC  H14S16040   6.816   4.032   4.700
  139POPC  C21516041   6.975   4.088   4.560
  139POPC  H15R16042   7.065   4.152   4.569
  139POPC  H15S16043   6.913   4.130   4.478
  139POPC  C21616044   7.019   3.945   4.526
  139POPC  H16R16045   7.071   3.899   4.612
  139POPC  H16S16046   7.092   3.944   4.442
  139POPC  C21716047   6.902   3.857   4.483
  139POPC  H17R16048   6.852   3.901   4.394
  139POPC  H17S16049   6.830   3.859   4.567
  139POPC  C21816050   6.944   3.713   4.453
  139POPC  H18R16051   6.991   3.667   4.543
  139POPC  H18S16052   7.018   3.711   4.370
  139POPC  H18T16053   6.856   3.652   4.424
  139POPC   C3316054   7.192   4.191   5.454
  139POPC   H3X16055   7.106   4.246   5.409
  139POPC   H3Y16056   7.169   4.082   5.449
  139POPC   C3416057   7.317   4.218   5.371
  139POPC   H4X16058   7.405   4.185   5.430
  139POPC   H4Y16059   7.324   4.328   5.353
  139POPC   C3516060   7.319   4.145   5.236
  139POPC   H5X16061   7.270   4.210   5.160
  139POPC   H5Y16062   7.259   4.052   5.244
  139POPC   C3616063   7.460   4.104   5.193
  139POPC   H6X16064   7.504   4.037   5.270
  139POPC   H6Y16065   7.522   4.196   5.195
  139POPC   C3716066   7.467   4.033   5.056
  139POPC   H7X16067   7.430   3.929   5.068
  139POPC   H7Y16068   7.573   4.026   5.024
  139POPC   C3816069   7.384   4.100   4.945
  139POPC   H8X16070   7.395   4.210   4.950
  139POPC   H8Y16071   7.276   4.079   4.964
  139POPC   C3916072   7.418   4.051   4.803
  139POPC   H9X16073   7.401   3.941   4.800
  139POPC   H9Y16074   7.525   4.068   4.780
  139POPC  C31016075   7.328   4.117   4.697
  139POPC  H10X16076   7.245   4.168   4.750
  139POPC  H10Y16077   7.284   4.037   4.634
  139POPC  C31116078   7.393   4.221   4.605
  139POPC  H11X16079   7.471   4.174   4.541
  139POPC  H11Y16080   7.439   4.303   4.662
  139POPC  C31216081   7.287   4.288   4.517
  139POPC  H12X16082   7.325   4.386   4.480
  139POPC  H12Y16083   7.197   4.311   4.578
  139POPC  C31316084   7.254   4.198   4.398
  139POPC  H13X16085   7.220   4.100   4.437
  139POPC  H13Y16086   7.348   4.176   4.345
  139POPC  C31416087   7.145   4.257   4.307
  139POPC  H14X16088   7.187   4.332   4.238
  139POPC  H14Y16089   7.071   4.309   4.373
  139POPC  C31516090   7.068   4.154   4.223
  139POPC  H15X16091   6.971   4.202   4.204
  139POPC  H15Y16092   7.048   4.062   4.281
  139POPC  C31616093   7.126   4.119   4.087
  139POPC  H16X16094   7.159   4.211   4.034
  139POPC  H16Y16095   7.049   4.070   4.023
  139POPC  H16Z16096   7.211   4.049   4.099
  140POPC     N16097   0.653   5.465   6.086
  140POPC   C1216098   0.739   5.340   6.090
  140POPC  H12A16099   0.827   5.353   6.029
  140POPC  H12B16100   0.685   5.256   6.046
  140POPC   C1316101   0.528   5.441   6.166
  140POPC  H13A16102   0.462   5.368   6.121
  140POPC  H13B16103   0.555   5.400   6.263
  140POPC  H13C16104   0.471   5.532   6.179
  140POPC   C1416105   0.733   5.575   6.147
  140POPC  H14A16106   0.678   5.669   6.149
  140POPC  H14B16107   0.753   5.549   6.251
  140POPC  H14C16108   0.828   5.586   6.098
  140POPC   C1516109   0.616   5.501   5.947
  140POPC  H15A16110   0.702   5.539   5.893
  140POPC  H15B16111   0.538   5.576   5.951
  140POPC  H15C16112   0.575   5.415   5.895
  140POPC   C1116113   0.785   5.287   6.229
  140POPC  H11A16114   0.836   5.366   6.288
  140POPC  H11B16115   0.863   5.209   6.211
  140POPC     P16116   0.614   5.092   6.262
  140POPC   O1316117   0.466   5.101   6.253
  140POPC   O1416118   0.669   4.979   6.337
  140POPC   O1216119   0.675   5.234   6.303
  140POPC   O1116120   0.664   5.078   6.113
  140POPC    C116121   0.572   5.077   6.006
  140POPC    HA16122   0.520   5.175   5.995
  140POPC    HB16123   0.495   4.997   6.023
  140POPC    C216124   0.651   5.044   5.878
  140POPC    HS16125   0.712   4.956   5.908
  140POPC   O2116126   0.727   5.159   5.834
  140POPC   C2116127   0.855   5.128   5.812
  140POPC   O2216128   0.915   5.033   5.858
  140POPC   C2216129   0.916   5.223   5.709
  140POPC   H2R16130   1.019   5.186   5.691
  140POPC   H2S16131   0.924   5.325   5.750
  140POPC    C316132   0.553   4.999   5.767
  140POPC    HX16133   0.455   4.999   5.820
  140POPC    HY16134   0.579   4.896   5.734
  140POPC   O3116135   0.553   5.087   5.655
  140POPC   C3116136   0.434   5.130   5.619
  140POPC   O3216137   0.327   5.077   5.643
  140POPC   C3216138   0.450   5.269   5.560
  140POPC   H2X16139   0.553   5.304   5.578
  140POPC   H2Y16140   0.381   5.337   5.614
  140POPC   C2316141   0.845   5.219   5.572
  140POPC   H3R16142   0.906   5.277   5.499
  140POPC   H3S16143   0.747   5.268   5.579
  140POPC   C2416144   0.831   5.076   5.517
  140POPC   H4R16145   0.743   5.025   5.560
  140POPC   H4S16146   0.918   5.017   5.550
  140POPC   C2516147   0.825   5.068   5.365
  140POPC   H5R16148   0.924   5.095   5.321
  140POPC   H5S16149   0.750   5.143   5.330
  140POPC   C2616150   0.784   4.927   5.321
  140POPC   H6R16151   0.692   4.901   5.377
  140POPC   H6S16152   0.863   4.856   5.353
  140POPC   C2716153   0.762   4.910   5.170
  140POPC   H7R16154   0.751   4.803   5.142
  140POPC   H7S16155   0.855   4.945   5.121
  140POPC   C2816156   0.646   4.993   5.114
  140POPC   H8R16157   0.667   5.004   5.005
  140POPC   H8S16158   0.656   5.093   5.158
  140POPC   C2916159   0.505   4.947   5.140
  140POPC   H9116160   0.477   4.940   5.246
  140POPC  C21016161   0.416   4.915   5.046
  140POPC  H10116162   0.314   4.884   5.076
  140POPC  C21116163   0.444   4.920   4.898
  140POPC  H11R16164   0.366   4.864   4.842
  140POPC  H11S16165   0.540   4.869   4.876
  140POPC  C21216166   0.455   5.062   4.840
  140POPC  H12R16167   0.529   5.124   4.894
  140POPC  H12S16168   0.356   5.112   4.850
  140POPC  C21316169   0.493   5.057   4.692
  140POPC  H13R16170   0.452   5.148   4.642
  140POPC  H13S16171   0.442   4.970   4.649
  140POPC  C21416172   0.642   5.045   4.659
  140POPC  H14R16173   0.684   4.947   4.692
  140POPC  H14S16174   0.697   5.125   4.714
  140POPC  C21516175   0.666   5.066   4.508
  140POPC  H15R16176   0.772   5.090   4.488
  140POPC  H15S16177   0.604   5.153   4.481
  140POPC  C21616178   0.623   4.952   4.415
  140POPC  H16R16179   0.516   4.929   4.432
  140POPC  H16S16180   0.682   4.860   4.437
  140POPC  C21716181   0.640   4.989   4.267
  140POPC  H17R16182   0.629   4.896   4.206
  140POPC  H17S16183   0.743   5.027   4.250
  140POPC  C21816184   0.538   5.092   4.216
  140POPC  H18R16185   0.434   5.058   4.236
  140POPC  H18S16186   0.551   5.106   4.107
  140POPC  H18T16187   0.552   5.190   4.265
  140POPC   C3316188   0.421   5.272   5.409
  140POPC   H3X16189   0.311   5.264   5.393
  140POPC   H3Y16190   0.470   5.186   5.358
  140POPC   C3416191   0.473   5.402   5.349
  140POPC   H4X16192   0.584   5.404   5.354
  140POPC   H4Y16193   0.437   5.486   5.411
  140POPC   C3516194   0.426   5.422   5.206
  140POPC   H5X16195   0.454   5.524   5.170
  140POPC   H5Y16196   0.315   5.417   5.204
  140POPC   C3616197   0.481   5.318   5.110
  140POPC   H6X16198   0.428   5.327   5.013
  140POPC   H6Y16199   0.455   5.216   5.148
  140POPC   C3716200   0.633   5.330   5.090
  140POPC   H7X16201   0.667   5.245   5.027
  140POPC   H7Y16202   0.687   5.323   5.187
  140POPC   C3816203   0.676   5.455   5.014
  140POPC   H8X16204   0.786   5.454   5.004
  140POPC   H8Y16205   0.647   5.548   5.069
  140POPC   C3916206   0.610   5.452   4.877
  140POPC   H9X16207   0.519   5.516   4.882
  140POPC   H9Y16208   0.576   5.348   4.856
  140POPC  C31016209   0.699   5.494   4.761
  140POPC  H10X16210   0.806   5.482   4.788
  140POPC  H10Y16211   0.681   5.602   4.742
  140POPC  C31116212   0.670   5.414   4.634
  140POPC  H11X16213   0.574   5.358   4.645
  140POPC  H11Y16214   0.749   5.337   4.618
  140POPC  C31216215   0.657   5.504   4.512
  140POPC  H12X16216   0.759   5.539   4.484
  140POPC  H12Y16217   0.596   5.593   4.537
  140POPC  C31316218   0.590   5.431   4.395
  140POPC  H13X16219   0.480   5.427   4.412
  140POPC  H13Y16220   0.626   5.327   4.397
  140POPC  C31416221   0.622   5.489   4.257
  140POPC  H14X16222   0.591   5.596   4.254
  140POPC  H14Y16223   0.561   5.434   4.182
  140POPC  C31516224   0.770   5.477   4.217
  140POPC  H15X16225   0.829   5.552   4.274
  140POPC  H15Y16226   0.775   5.504   4.110
  140POPC  C31616227   0.832   5.338   4.239
  140POPC  H16X16228   0.778   5.260   4.181
  140POPC  H16Y16229   0.831   5.309   4.346
  140POPC  H16Z16230   0.939   5.338   4.206
  141POPC     N16231   2.166   7.125   6.379
  141POPC   C1216232   2.160   7.223   6.263
  141POPC  H12A16233   2.255   7.220   6.209
  141POPC  H12B16234   2.144   7.324   6.298
  141POPC   C1316235   2.028   7.101   6.430
  141POPC  H13A16236   1.984   7.196   6.459
  141POPC  H13B16237   1.968   7.058   6.351
  141POPC  H13C16238   2.032   7.036   6.516
  141POPC   C1416239   2.226   6.999   6.325
  141POPC  H14A16240   2.220   6.914   6.390
  141POPC  H14B16241   2.173   6.975   6.232
  141POPC  H14C16242   2.330   7.013   6.294
  141POPC   C1516243   2.249   7.173   6.494
  141POPC  H15A16244   2.261   7.092   6.567
  141POPC  H15B16245   2.202   7.257   6.545
  141POPC  H15C16246   2.349   7.197   6.462
  141POPC   C1116247   2.052   7.189   6.156
  141POPC  H11A16248   2.049   7.272   6.080
  141POPC  H11B16249   1.950   7.188   6.199
  141POPC     P16250   2.186   7.069   5.975
  141POPC   O1316251   2.289   7.168   6.014
  141POPC   O1416252   2.111   7.099   5.852
  141POPC   O1216253   2.080   7.060   6.096
  141POPC   O1116254   2.250   6.923   5.961
  141POPC    C116255   2.194   6.796   5.994
  141POPC    HA16256   2.095   6.806   6.041
  141POPC    HB16257   2.264   6.751   6.069
  141POPC    C216258   2.184   6.683   5.881
  141POPC    HS16259   2.179   6.586   5.935
  141POPC   O2116260   2.296   6.683   5.791
  141POPC   C2116261   2.326   6.570   5.727
  141POPC   O2216262   2.282   6.459   5.755
  141POPC   C2216263   2.420   6.602   5.610
  141POPC   H2R16264   2.516   6.631   5.656
  141POPC   H2S16265   2.377   6.691   5.561
  141POPC    C316266   2.052   6.690   5.795
  141POPC    HX16267   1.966   6.684   5.865
  141POPC    HY16268   2.050   6.601   5.728
  141POPC   O3116269   2.039   6.811   5.720
  141POPC   C3116270   1.946   6.810   5.625
  141POPC   O3216271   1.890   6.711   5.581
  141POPC   C3216272   1.925   6.954   5.579
  141POPC   H2X16273   2.022   6.984   5.537
  141POPC   H2Y16274   1.906   7.016   5.669
  141POPC   C2316275   2.445   6.493   5.500
  141POPC   H3R16276   2.510   6.539   5.422
  141POPC   H3S16277   2.503   6.408   5.542
  141POPC   C2416278   2.320   6.435   5.429
  141POPC   H4R16279   2.261   6.381   5.507
  141POPC   H4S16280   2.351   6.358   5.355
  141POPC   C2516281   2.224   6.534   5.360
  141POPC   H5R16282   2.214   6.625   5.422
  141POPC   H5S16283   2.124   6.485   5.360
  141POPC   C2616284   2.251   6.573   5.211
  141POPC   H6R16285   2.297   6.489   5.155
  141POPC   H6S16286   2.322   6.656   5.209
  141POPC   C2716287   2.121   6.616   5.140
  141POPC   H7R16288   2.053   6.648   5.224
  141POPC   H7S16289   2.077   6.528   5.091
  141POPC   C2816290   2.117   6.738   5.045
  141POPC   H8R16291   2.163   6.823   5.100
  141POPC   H8S16292   2.011   6.771   5.039
  141POPC   C2916293   2.167   6.734   4.902
  141POPC   H9116294   2.226   6.824   4.878
  141POPC  C21016295   2.150   6.646   4.801
  141POPC  H10116296   2.200   6.672   4.706
  141POPC  C21116297   2.073   6.517   4.790
  141POPC  H11R16298   2.058   6.470   4.889
  141POPC  H11S16299   2.129   6.444   4.728
  141POPC  C21216300   1.934   6.539   4.725
  141POPC  H12R16301   1.881   6.615   4.785
  141POPC  H12S16302   1.874   6.445   4.732
  141POPC  C21316303   1.938   6.584   4.578
  141POPC  H13R16304   1.946   6.494   4.512
  141POPC  H13S16305   2.029   6.645   4.561
  141POPC  C21416306   1.818   6.668   4.533
  141POPC  H14R16307   1.725   6.607   4.543
  141POPC  H14S16308   1.829   6.689   4.424
  141POPC  C21516309   1.802   6.801   4.609
  141POPC  H15R16310   1.897   6.830   4.658
  141POPC  H15S16311   1.724   6.785   4.685
  141POPC  C21616312   1.748   6.915   4.522
  141POPC  H16R16313   1.637   6.909   4.529
  141POPC  H16S16314   1.778   6.898   4.416
  141POPC  C21716315   1.779   7.060   4.557
  141POPC  H17R16316   1.888   7.081   4.548
  141POPC  H17S16317   1.750   7.092   4.658
  141POPC  C21816318   1.695   7.140   4.459
  141POPC  H18R16319   1.587   7.120   4.478
  141POPC  H18S16320   1.718   7.110   4.355
  141POPC  H18T16321   1.710   7.249   4.465
  141POPC   C3316322   1.812   6.975   5.475
  141POPC   H3X16323   1.826   6.908   5.388
  141POPC   H3Y16324   1.713   6.951   5.522
  141POPC   C3416325   1.804   7.120   5.427
  141POPC   H4X16326   1.765   7.181   5.512
  141POPC   H4Y16327   1.731   7.130   5.344
  141POPC   C3516328   1.939   7.183   5.387
  141POPC   H5X16329   2.016   7.171   5.464
  141POPC   H5Y16330   1.922   7.293   5.379
  141POPC   C3616331   1.998   7.137   5.254
  141POPC   H6X16332   1.916   7.118   5.182
  141POPC   H6Y16333   2.054   7.042   5.266
  141POPC   C3716334   2.091   7.247   5.200
  141POPC   H7X16335   2.176   7.260   5.271
  141POPC   H7Y16336   2.036   7.344   5.201
  141POPC   C3816337   2.141   7.219   5.059
  141POPC   H8X16338   2.061   7.170   4.999
  141POPC   H8Y16339   2.223   7.145   5.069
  141POPC   C3916340   2.189   7.344   4.982
  141POPC   H9X16341   2.273   7.390   5.038
  141POPC   H9Y16342   2.113   7.425   4.977
  141POPC  C31016343   2.234   7.312   4.838
  141POPC  H10X16344   2.296   7.397   4.801
  141POPC  H10Y16345   2.148   7.305   4.769
  141POPC  C31116346   2.312   7.181   4.830
  141POPC  H11X16347   2.242   7.094   4.827
  141POPC  H11Y16348   2.372   7.172   4.923
  141POPC  C31216349   2.411   7.177   4.714
  141POPC  H12X16350   2.498   7.115   4.747
  141POPC  H12Y16351   2.449   7.279   4.693
  141POPC  C31316352   2.355   7.113   4.586
  141POPC  H13X16353   2.271   7.174   4.546
  141POPC  H13Y16354   2.314   7.013   4.612
  141POPC  C31416355   2.466   7.098   4.483
  141POPC  H14X16356   2.552   7.048   4.534
  141POPC  H14Y16357   2.502   7.198   4.450
  141POPC  C31516358   2.429   7.012   4.361
  141POPC  H15X16359   2.381   6.919   4.398
  141POPC  H15Y16360   2.523   6.983   4.309
  141POPC  C31616361   2.339   7.080   4.259
  141POPC  H16X16362   2.397   7.155   4.200
  141POPC  H16Y16363   2.255   7.131   4.309
  141POPC  H16Z16364   2.298   7.005   4.188
  142POPC     N16365   5.231   7.076   6.089
  142POPC   C1216366   5.349   7.167   6.061
  142POPC  H12A16367   5.319   7.246   5.992
  142POPC  H12B16368   5.431   7.113   6.013
  142POPC   C1316369   5.110   7.162   6.111
  142POPC  H13A16370   5.023   7.101   6.129
  142POPC  H13B16371   5.127   7.227   6.198
  142POPC  H13C16372   5.091   7.228   6.027
  142POPC   C1416373   5.201   6.977   5.982
  142POPC  H14A16374   5.111   6.920   6.011
  142POPC  H14B16375   5.182   7.021   5.885
  142POPC  H14C16376   5.278   6.902   5.974
  142POPC   C1516377   5.251   6.998   6.215
  142POPC  H15A16378   5.333   6.927   6.207
  142POPC  H15B16379   5.159   6.946   6.238
  142POPC  H15C16380   5.273   7.070   6.294
  142POPC   C1116381   5.407   7.240   6.186
  142POPC  H11A16382   5.486   7.311   6.150
  142POPC  H11B16383   5.461   7.166   6.249
  142POPC     P16384   5.281   7.459   6.248
  142POPC   O1316385   5.395   7.533   6.308
  142POPC   O1416386   5.145   7.495   6.297
  142POPC   O1216387   5.305   7.303   6.265
  142POPC   O1116388   5.284   7.471   6.091
  142POPC    C116389   5.225   7.582   6.022
  142POPC    HA16390   5.299   7.665   6.011
  142POPC    HB16391   5.136   7.622   6.075
  142POPC    C216392   5.176   7.542   5.880
  142POPC    HS16393   5.116   7.629   5.843
  142POPC   O2116394   5.102   7.416   5.885
  142POPC   C2116395   4.986   7.421   5.819
  142POPC   O2216396   4.925   7.523   5.794
  142POPC   C2216397   4.942   7.279   5.782
  142POPC   H2R16398   4.856   7.255   5.849
  142POPC   H2S16399   5.024   7.208   5.804
  142POPC    C316400   5.295   7.528   5.780
  142POPC    HX16401   5.368   7.455   5.821
  142POPC    HY16402   5.346   7.627   5.772
  142POPC   O3116403   5.243   7.488   5.653
  142POPC   C3116404   5.330   7.474   5.554
  142POPC   O3216405   5.452   7.471   5.565
  142POPC   C3216406   5.253   7.456   5.423
  142POPC   H2X16407   5.156   7.510   5.434
  142POPC   H2Y16408   5.235   7.347   5.411
  142POPC   C2316409   4.894   7.261   5.635
  142POPC   H3R16410   4.824   7.343   5.608
  142POPC   H3S16411   4.836   7.166   5.630
  142POPC   C2416412   5.006   7.248   5.529
  142POPC   H4R16413   5.084   7.177   5.563
  142POPC   H4S16414   5.050   7.349   5.522
  142POPC   C2516415   4.951   7.206   5.391
  142POPC   H5R16416   4.864   7.274   5.378
  142POPC   H5S16417   4.912   7.102   5.394
  142POPC   C2616418   5.039   7.224   5.264
  142POPC   H6R16419   5.096   7.318   5.270
  142POPC   H6S16420   4.967   7.241   5.181
  142POPC   C2716421   5.128   7.106   5.219
  142POPC   H7R16422   5.063   7.016   5.207
  142POPC   H7S16423   5.205   7.083   5.297
  142POPC   C2816424   5.199   7.137   5.084
  142POPC   H8R16425   5.283   7.206   5.109
  142POPC   H8S16426   5.123   7.196   5.028
  142POPC   C2916427   5.256   7.031   4.992
  142POPC   H9116428   5.332   6.964   5.034
  142POPC  C21016429   5.233   7.027   4.859
  142POPC  H10116430   5.278   6.947   4.798
  142POPC  C21116431   5.147   7.126   4.784
  142POPC  H11R16432   5.172   7.229   4.814
  142POPC  H11S16433   5.041   7.117   4.814
  142POPC  C21216434   5.151   7.118   4.631
  142POPC  H12R16435   5.135   7.015   4.596
  142POPC  H12S16436   5.252   7.148   4.596
  142POPC  C21316437   5.046   7.207   4.563
  142POPC  H13R16438   4.954   7.148   4.545
  142POPC  H13S16439   5.085   7.234   4.462
  142POPC  C21416440   5.008   7.331   4.646
  142POPC  H14R16441   5.098   7.378   4.689
  142POPC  H14S16442   4.942   7.298   4.730
  142POPC  C21516443   4.933   7.438   4.568
  142POPC  H15R16444   4.905   7.519   4.639
  142POPC  H15S16445   4.841   7.391   4.526
  142POPC  C21616446   5.012   7.496   4.451
  142POPC  H16R16447   4.948   7.497   4.360
  142POPC  H16S16448   5.099   7.432   4.431
  142POPC  C21716449   5.063   7.638   4.470
  142POPC  H17R16450   5.126   7.644   4.562
  142POPC  H17S16451   4.976   7.706   4.481
  142POPC  C21816452   5.143   7.679   4.347
  142POPC  H18R16453   5.079   7.682   4.258
  142POPC  H18S16454   5.227   7.609   4.328
  142POPC  H18T16455   5.183   7.781   4.360
  142POPC   C3316456   5.327   7.511   5.301
  142POPC   H3X16457   5.409   7.443   5.269
  142POPC   H3Y16458   5.375   7.604   5.340
  142POPC   C3416459   5.238   7.555   5.183
  142POPC   H4X16460   5.264   7.660   5.155
  142POPC   H4Y16461   5.133   7.556   5.219
  142POPC   C3516462   5.244   7.478   5.051
  142POPC   H5X16463   5.188   7.536   4.974
  142POPC   H5Y16464   5.187   7.385   5.064
  142POPC   C3616465   5.385   7.449   4.995
  142POPC   H6X16466   5.440   7.378   5.061
  142POPC   H6Y16467   5.442   7.543   4.991
  142POPC   C3716468   5.377   7.390   4.854
  142POPC   H7X16469   5.293   7.440   4.800
  142POPC   H7Y16470   5.354   7.282   4.865
  142POPC   C3816471   5.502   7.400   4.766
  142POPC   H8X16472   5.588   7.355   4.821
  142POPC   H8Y16473   5.528   7.506   4.744
  142POPC   C3916474   5.481   7.324   4.634
  142POPC   H9X16475   5.443   7.223   4.660
  142POPC   H9Y16476   5.579   7.311   4.583
  142POPC  C31016477   5.381   7.393   4.539
  142POPC  H10X16478   5.412   7.499   4.526
  142POPC  H10Y16479   5.281   7.394   4.587
  142POPC  C31116480   5.365   7.330   4.399
  142POPC  H11X16481   5.283   7.385   4.348
  142POPC  H11Y16482   5.331   7.225   4.404
  142POPC  C31216483   5.489   7.348   4.311
  142POPC  H12X16484   5.577   7.377   4.373
  142POPC  H12Y16485   5.461   7.433   4.246
  142POPC  C31316486   5.529   7.240   4.211
  142POPC  H13X16487   5.537   7.143   4.262
  142POPC  H13Y16488   5.629   7.264   4.167
  142POPC  C31416489   5.430   7.234   4.095
  142POPC  H14X16490   5.330   7.252   4.140
  142POPC  H14Y16491   5.431   7.132   4.051
  142POPC  C31516492   5.450   7.336   3.981
  142POPC  H15X16493   5.480   7.433   4.021
  142POPC  H15Y16494   5.357   7.365   3.928
  142POPC  C31616495   5.546   7.287   3.874
  142POPC  H16X16496   5.578   7.373   3.812
  142POPC  H16Y16497   5.499   7.213   3.807
  142POPC  H16Z16498   5.635   7.241   3.922
  143POPC     N16499   7.298   5.288   6.300
  143POPC   C1216500   7.435   5.231   6.275
  143POPC  H12A16501   7.429   5.124   6.258
  143POPC  H12B16502   7.491   5.245   6.367
  143POPC   C1316503   7.318   5.400   6.396
  143POPC  H13A16504   7.363   5.364   6.488
  143POPC  H13B16505   7.390   5.470   6.351
  143POPC  H13C16506   7.228   5.455   6.417
  143POPC   C1416507   7.242   5.355   6.182
  143POPC  H14A16508   7.309   5.436   6.152
  143POPC  H14B16509   7.233   5.287   6.098
  143POPC  H14C16510   7.145   5.396   6.206
  143POPC   C1516511   7.202   5.183   6.343
  143POPC  H15A16512   7.226   5.133   6.435
  143POPC  H15B16513   7.192   5.105   6.267
  143POPC  H15C16514   7.101   5.224   6.349
  143POPC   C1116515   7.520   5.297   6.165
  143POPC  H11A16516   7.490   5.262   6.064
  143POPC  H11B16517   7.627   5.270   6.178
  143POPC     P16518   7.599   5.549   6.161
  143POPC   O1316519   7.734   5.492   6.174
  143POPC   O1416520   7.558   5.651   6.260
  143POPC   O1216521   7.498   5.436   6.174
  143POPC   O1116522   7.568   5.596   6.012
  143POPC    C116523   7.452   5.675   5.982
  143POPC    HA16524   7.480   5.783   5.977
  143POPC    HB16525   7.374   5.667   6.061
  143POPC    C216526   7.384   5.635   5.848
  143POPC    HS16527   7.279   5.611   5.877
  143POPC   O2116528   7.453   5.522   5.788
  143POPC   C2116529   7.368   5.440   5.727
  143POPC   O2216530   7.253   5.469   5.701
  143POPC   C2216531   7.426   5.300   5.704
  143POPC   H2R16532   7.342   5.229   5.713
  143POPC   H2S16533   7.499   5.280   5.786
  143POPC    C316534   7.378   5.755   5.748
  143POPC    HX16535   7.323   5.838   5.797
  143POPC    HY16536   7.317   5.723   5.660
  143POPC   O3116537   7.511   5.797   5.714
  143POPC   C3116538   7.537   5.801   5.585
  143POPC   O3216539   7.459   5.827   5.497
  143POPC   C3216540   7.680   5.755   5.561
  143POPC   H2X16541   7.740   5.783   5.650
  143POPC   H2Y16542   7.719   5.808   5.473
  143POPC   C2316543   7.495   5.276   5.568
  143POPC   H3R16544   7.545   5.176   5.572
  143POPC   H3S16545   7.575   5.351   5.556
  143POPC   C2416546   7.404   5.275   5.444
  143POPC   H4R16547   7.328   5.196   5.452
  143POPC   H4S16548   7.467   5.250   5.356
  143POPC   C2516549   7.332   5.407   5.417
  143POPC   H5R16550   7.386   5.491   5.465
  143POPC   H5S16551   7.231   5.400   5.465
  143POPC   C2616552   7.311   5.442   5.270
  143POPC   H6R16553   7.265   5.354   5.220
  143POPC   H6S16554   7.408   5.460   5.219
  143POPC   C2716555   7.216   5.562   5.257
  143POPC   H7R16556   7.137   5.546   5.333
  143POPC   H7S16557   7.167   5.560   5.158
  143POPC   C2816558   7.275   5.701   5.286
  143POPC   H8R16559   7.288   5.707   5.396
  143POPC   H8S16560   7.201   5.780   5.258
  143POPC   C2916561   7.406   5.722   5.217
  143POPC   H9116562   7.491   5.747   5.281
  143POPC  C21016563   7.426   5.713   5.085
  143POPC  H10116564   7.530   5.715   5.050
  143POPC  C21116565   7.321   5.680   4.982
  143POPC  H11R16566   7.219   5.708   5.017
  143POPC  H11S16567   7.320   5.571   4.963
  143POPC  C21216568   7.342   5.754   4.850
  143POPC  H12R16569   7.310   5.860   4.862
  143POPC  H12S16570   7.277   5.709   4.772
  143POPC  C21316571   7.487   5.753   4.803
  143POPC  H13R16572   7.526   5.649   4.792
  143POPC  H13S16573   7.551   5.806   4.878
  143POPC  C21416574   7.505   5.829   4.673
  143POPC  H14R16575   7.441   5.919   4.676
  143POPC  H14S16576   7.469   5.766   4.589
  143POPC  C21516577   7.651   5.870   4.656
  143POPC  H15R16578   7.709   5.845   4.746
  143POPC  H15S16579   7.658   5.981   4.651
  143POPC  C21616580   7.709   5.809   4.530
  143POPC  H16R16581   7.681   5.702   4.523
  143POPC  H16S16582   7.819   5.815   4.532
  143POPC  C21716583   7.648   5.890   4.416
  143POPC  H17R16584   7.655   5.997   4.445
  143POPC  H17S16585   7.540   5.863   4.410
  143POPC  C21816586   7.706   5.880   4.278
  143POPC  H18R16587   7.816   5.892   4.274
  143POPC  H18S16588   7.664   5.963   4.218
  143POPC  H18T16589   7.675   5.783   4.233
  143POPC   C3316590   7.683   5.601   5.542
  143POPC   H3X16591   7.599   5.553   5.597
  143POPC   H3Y16592   7.775   5.560   5.588
  143POPC   C3416593   7.680   5.554   5.396
  143POPC   H4X16594   7.722   5.633   5.330
  143POPC   H4Y16595   7.575   5.540   5.366
  143POPC   C3516596   7.759   5.423   5.368
  143POPC   H5X16597   7.741   5.346   5.446
  143POPC   H5Y16598   7.867   5.445   5.369
  143POPC   C3616599   7.714   5.369   5.233
  143POPC   H6X16600   7.727   5.450   5.159
  143POPC   H6Y16601   7.605   5.350   5.239
  143POPC   C3716602   7.781   5.243   5.177
  143POPC   H7X16603   7.737   5.153   5.226
  143POPC   H7Y16604   7.890   5.242   5.198
  143POPC   C3816605   7.758   5.234   5.024
  143POPC   H8X16606   7.794   5.137   4.984
  143POPC   H8Y16607   7.819   5.313   4.975
  143POPC   C3916608   7.609   5.256   4.991
  143POPC   H9X16609   7.576   5.353   5.033
  143POPC   H9Y16610   7.548   5.177   5.039
  143POPC  C31016611   7.573   5.268   4.844
  143POPC  H10X16612   7.562   5.170   4.795
  143POPC  H10Y16613   7.653   5.320   4.790
  143POPC  C31116614   7.443   5.349   4.829
  143POPC  H11X16615   7.466   5.455   4.852
  143POPC  H11Y16616   7.370   5.315   4.905
  143POPC  C31216617   7.383   5.337   4.690
  143POPC  H12X16618   7.283   5.386   4.691
  143POPC  H12Y16619   7.367   5.230   4.666
  143POPC  C31316620   7.473   5.400   4.583
  143POPC  H13X16621   7.573   5.353   4.591
  143POPC  H13Y16622   7.486   5.508   4.608
  143POPC  C31416623   7.425   5.386   4.439
  143POPC  H14X16624   7.433   5.280   4.406
  143POPC  H14Y16625   7.493   5.446   4.375
  143POPC  C31516626   7.281   5.435   4.415
  143POPC  H15X16627   7.210   5.367   4.466
  143POPC  H15Y16628   7.260   5.428   4.307
  143POPC  C31616629   7.258   5.579   4.464
  143POPC  H16X16630   7.154   5.610   4.444
  143POPC  H16Y16631   7.328   5.649   4.414
  143POPC  H16Z16632   7.275   5.586   4.574
  144POPC     N16633   1.041   6.556   6.177
  144POPC   C1216634   0.930   6.559   6.072
  144POPC  H12A16635   0.964   6.502   5.986
  144POPC  H12B16636   0.917   6.660   6.034
  144POPC   C1316637   1.016   6.665   6.278
  144POPC  H13A16638   0.909   6.669   6.298
  144POPC  H13B16639   1.072   6.650   6.369
  144POPC  H13C16640   1.043   6.761   6.237
  144POPC   C1416641   1.043   6.422   6.245
  144POPC  H14A16642   1.125   6.415   6.316
  144POPC  H14B16643   0.949   6.404   6.295
  144POPC  H14C16644   1.056   6.342   6.171
  144POPC   C1516645   1.172   6.575   6.110
  144POPC  H15A16646   1.197   6.490   6.046
  144POPC  H15B16647   1.254   6.585   6.181
  144POPC  H15C16648   1.173   6.662   6.046
  144POPC   C1116649   0.789   6.504   6.110
  144POPC  H11A16650   0.800   6.399   6.147
  144POPC  H11B16651   0.729   6.496   6.017
  144POPC     P16652   0.621   6.696   6.170
  144POPC   O1316653   0.550   6.738   6.292
  144POPC   O1416654   0.546   6.655   6.049
  144POPC   O1216655   0.724   6.581   6.210
  144POPC   O1116656   0.723   6.810   6.141
  144POPC    C116657   0.675   6.941   6.114
  144POPC    HA16658   0.682   7.003   6.206
  144POPC    HB16659   0.569   6.946   6.076
  144POPC    C216660   0.770   6.988   6.006
  144POPC    HS16661   0.751   7.094   5.980
  144POPC   O2116662   0.756   6.901   5.892
  144POPC   C2116663   0.648   6.928   5.817
  144POPC   O2216664   0.576   7.025   5.834
  144POPC   C2216665   0.641   6.835   5.694
  144POPC   H2R16666   0.680   6.895   5.609
  144POPC   H2S16667   0.534   6.815   5.674
  144POPC    C316668   0.913   6.981   6.064
  144POPC    HX16669   0.948   6.875   6.070
  144POPC    HY16670   0.913   7.018   6.169
  144POPC   O3116671   0.998   7.065   5.984
  144POPC   C3116672   1.033   7.000   5.873
  144POPC   O3216673   1.068   6.885   5.868
  144POPC   C3216674   0.963   7.076   5.760
  144POPC   H2X16675   0.933   7.177   5.790
  144POPC   H2Y16676   0.869   7.022   5.744
  144POPC   C2316677   0.722   6.703   5.706
  144POPC   H3R16678   0.667   6.634   5.774
  144POPC   H3S16679   0.821   6.725   5.753
  144POPC   C2416680   0.751   6.637   5.570
  144POPC   H4R16681   0.814   6.707   5.512
  144POPC   H4S16682   0.654   6.628   5.515
  144POPC   C2516683   0.821   6.498   5.572
  144POPC   H5R16684   0.846   6.470   5.468
  144POPC   H5S16685   0.746   6.423   5.605
  144POPC   C2616686   0.946   6.487   5.663
  144POPC   H6R16687   0.907   6.440   5.756
  144POPC   H6S16688   0.975   6.588   5.699
  144POPC   C2716689   1.075   6.402   5.625
  144POPC   H7R16690   1.032   6.299   5.617
  144POPC   H7S16691   1.142   6.406   5.714
  144POPC   C2816692   1.173   6.413   5.497
  144POPC   H8R16693   1.101   6.422   5.418
  144POPC   H8S16694   1.197   6.305   5.499
  144POPC   C2916695   1.317   6.466   5.461
  144POPC   H9116696   1.382   6.442   5.545
  144POPC  C21016697   1.386   6.526   5.352
  144POPC  H10116698   1.493   6.544   5.371
  144POPC  C21116699   1.355   6.570   5.204
  144POPC  H11R16700   1.251   6.564   5.196
  144POPC  H11S16701   1.395   6.491   5.139
  144POPC  C21216702   1.376   6.705   5.116
  144POPC  H12R16703   1.457   6.673   5.048
  144POPC  H12S16704   1.419   6.785   5.181
  144POPC  C21316705   1.276   6.778   5.010
  144POPC  H13R16706   1.338   6.817   4.928
  144POPC  H13S16707   1.234   6.868   5.059
  144POPC  C21416708   1.159   6.711   4.931
  144POPC  H14R16709   1.087   6.677   5.009
  144POPC  H14S16710   1.198   6.625   4.873
  144POPC  C21516711   1.069   6.784   4.827
  144POPC  H15R16712   1.051   6.887   4.854
  144POPC  H15S16713   0.968   6.735   4.834
  144POPC  C21616714   1.110   6.781   4.678
  144POPC  H16R16715   1.175   6.693   4.660
  144POPC  H16S16716   1.169   6.872   4.655
  144POPC  C21716717   0.993   6.770   4.578
  144POPC  H17R16718   0.919   6.851   4.597
  144POPC  H17S16719   0.941   6.673   4.595
  144POPC  C21816720   1.037   6.776   4.430
  144POPC  H18R16721   1.092   6.683   4.403
  144POPC  H18S16722   1.105   6.862   4.413
  144POPC  H18T16723   0.950   6.786   4.362
  144POPC   C3316724   1.032   7.064   5.625
  144POPC   H3X16725   1.127   7.006   5.635
  144POPC   H3Y16726   1.057   7.160   5.576
  144POPC   C3416727   0.950   6.977   5.533
  144POPC   H4X16728   0.902   6.892   5.587
  144POPC   H4Y16729   1.024   6.931   5.465
  144POPC   C3516730   0.852   7.045   5.442
  144POPC   H5X16731   0.894   7.141   5.408
  144POPC   H5Y16732   0.755   7.064   5.492
  144POPC   C3616733   0.841   6.949   5.326
  144POPC   H6X16734   0.847   6.847   5.370
  144POPC   H6Y16735   0.928   6.962   5.259
  144POPC   C3716736   0.710   6.948   5.257
  144POPC   H7X16737   0.697   7.035   5.190
  144POPC   H7Y16738   0.630   6.952   5.335
  144POPC   C3816739   0.694   6.819   5.178
  144POPC   H8X16740   0.700   6.730   5.246
  144POPC   H8Y16741   0.773   6.808   5.100
  144POPC   C3916742   0.558   6.833   5.116
  144POPC   H9X16743   0.567   6.908   5.034
  144POPC   H9Y16744   0.490   6.874   5.194
  144POPC  C31016745   0.494   6.707   5.064
  144POPC  H10X16746   0.387   6.731   5.052
  144POPC  H10Y16747   0.502   6.621   5.134
  144POPC  C31116748   0.545   6.673   4.925
  144POPC  H11X16749   0.648   6.632   4.931
  144POPC  H11Y16750   0.549   6.766   4.864
  144POPC  C31216751   0.449   6.575   4.859
  144POPC  H12X16752   0.353   6.627   4.838
  144POPC  H12Y16753   0.428   6.491   4.929
  144POPC  C31316754   0.508   6.520   4.730
  144POPC  H13X16755   0.436   6.447   4.686
  144POPC  H13Y16756   0.602   6.466   4.753
  144POPC  C31416757   0.536   6.632   4.630
  144POPC  H14X16758   0.622   6.693   4.665
  144POPC  H14Y16759   0.445   6.697   4.625
  144POPC  C31516760   0.565   6.576   4.492
  144POPC  H15X16761   0.555   6.656   4.415
  144POPC  H15Y16762   0.485   6.501   4.476
  144POPC  C31616763   0.702   6.511   4.478
  144POPC  H16X16764   0.707   6.449   4.387
  144POPC  H16Y16765   0.723   6.445   4.565
  144POPC  H16Z16766   0.782   6.588   4.473
  145POPC     N16767   0.481   6.083   5.989
  145POPC   C1216768   0.489   6.097   6.141
  145POPC  H12A16769   0.591   6.124   6.169
  145POPC  H12B16770   0.471   6.001   6.189
  145POPC   C1316771   0.490   6.220   5.927
  145POPC  H13A16772   0.483   6.216   5.819
  145POPC  H13B16773   0.410   6.282   5.966
  145POPC  H13C16774   0.583   6.268   5.953
  145POPC   C1416775   0.591   5.995   5.939
  145POPC  H14A16776   0.689   6.035   5.963
  145POPC  H14B16777   0.585   5.898   5.988
  145POPC  H14C16778   0.583   5.980   5.832
  145POPC   C1516779   0.349   6.025   5.956
  145POPC  H15A16780   0.326   6.018   5.851
  145POPC  H15B16781   0.269   6.082   6.004
  145POPC  H15C16782   0.335   5.927   6.003
  145POPC   C1116783   0.391   6.199   6.206
  145POPC  H11A16784   0.396   6.297   6.155
  145POPC  H11B16785   0.421   6.218   6.311
  145POPC     P16786   0.216   6.027   6.293
  145POPC   O1316787   0.074   6.030   6.330
  145POPC   O1416788   0.310   6.018   6.406
  145POPC   O1216789   0.256   6.154   6.205
  145POPC   O1116790   0.250   5.909   6.191
  145POPC    C116791   0.153   5.806   6.168
  145POPC    HA16792   0.057   5.820   6.225
  145POPC    HB16793   0.192   5.709   6.206
  145POPC    C216794   0.108   5.790   6.019
  145POPC    HS16795   0.052   5.697   6.010
  145POPC   O2116796   0.214   5.783   5.921
  145POPC   C2116797   0.288   5.674   5.930
  145POPC   O2216798   0.293   5.595   6.021
  145POPC   C2216799   0.378   5.657   5.808
  145POPC   H2R16800   0.397   5.548   5.799
  145POPC   H2S16801   0.472   5.710   5.833
  145POPC    C316802   0.011   5.906   5.979
  145POPC    HX16803  -0.072   5.902   6.054
  145POPC    HY16804  -0.030   5.882   5.879
  145POPC   O3116805   0.073   6.035   5.976
  145POPC   C3116806  -0.013   6.136   5.986
  145POPC   O3216807  -0.134   6.128   5.995
  145POPC   C3216808   0.061   6.265   5.949
  145POPC   H2X16809   0.164   6.261   5.990
  145POPC   H2Y16810   0.007   6.347   5.999
  145POPC   C2316811   0.326   5.708   5.674
  145POPC   H3R16812   0.278   5.808   5.684
  145POPC   H3S16813   0.249   5.637   5.636
  145POPC   C2416814   0.444   5.718   5.577
  145POPC   H4R16815   0.484   5.616   5.559
  145POPC   H4S16816   0.525   5.776   5.625
  145POPC   C2516817   0.410   5.788   5.445
  145POPC   H5R16818   0.497   5.781   5.376
  145POPC   H5S16819   0.391   5.896   5.466
  145POPC   C2616820   0.287   5.732   5.373
  145POPC   H6R16821   0.203   5.722   5.444
  145POPC   H6S16822   0.309   5.630   5.336
  145POPC   C2716823   0.243   5.823   5.256
  145POPC   H7R16824   0.289   5.923   5.270
  145POPC   H7S16825   0.133   5.837   5.259
  145POPC   C2816826   0.287   5.766   5.121
  145POPC   H8R16827   0.393   5.734   5.127
  145POPC   H8S16828   0.280   5.844   5.043
  145POPC   C2916829   0.196   5.649   5.092
  145POPC   H9116830   0.180   5.583   5.178
  145POPC  C21016831   0.143   5.614   4.975
  145POPC  H10116832   0.079   5.524   4.970
  145POPC  C21116833   0.165   5.683   4.845
  145POPC  H11R16834   0.174   5.793   4.856
  145POPC  H11S16835   0.078   5.662   4.779
  145POPC  C21216836   0.292   5.627   4.779
  145POPC  H12R16837   0.381   5.665   4.834
  145POPC  H12S16838   0.301   5.672   4.677
  145POPC  C21316839   0.295   5.472   4.773
  145POPC  H13R16840   0.296   5.430   4.876
  145POPC  H13S16841   0.390   5.441   4.725
  145POPC  C21416842   0.182   5.410   4.690
  145POPC  H14R16843   0.085   5.440   4.732
  145POPC  H14S16844   0.190   5.299   4.688
  145POPC  C21516845   0.196   5.473   4.553
  145POPC  H15R16846   0.305   5.476   4.529
  145POPC  H15S16847   0.157   5.576   4.570
  145POPC  C21616848   0.123   5.424   4.430
  145POPC  H16R16849   0.017   5.400   4.452
  145POPC  H16S16850   0.173   5.334   4.389
  145POPC  C21716851   0.128   5.540   4.329
  145POPC  H17R16852   0.037   5.602   4.342
  145POPC  H17S16853   0.123   5.494   4.229
  145POPC  C21816854   0.253   5.633   4.339
  145POPC  H18R16855   0.267   5.678   4.439
  145POPC  H18S16856   0.246   5.720   4.273
  145POPC  H18T16857   0.345   5.577   4.313
  145POPC   C3316858   0.062   6.287   5.795
  145POPC   H3X16859   0.099   6.390   5.776
  145POPC   H3Y16860  -0.042   6.282   5.755
  145POPC   C3416861   0.152   6.190   5.717
  145POPC   H4X16862   0.135   6.085   5.752
  145POPC   H4Y16863   0.258   6.216   5.740
  145POPC   C3516864   0.135   6.187   5.564
  145POPC   H5X16865   0.060   6.109   5.536
  145POPC   H5Y16866   0.232   6.156   5.519
  145POPC   C3616867   0.089   6.320   5.503
  145POPC   H6X16868   0.129   6.405   5.563
  145POPC   H6Y16869  -0.022   6.325   5.509
  145POPC   C3716870   0.134   6.343   5.358
  145POPC   H7X16871   0.240   6.374   5.358
  145POPC   H7Y16872   0.074   6.427   5.317
  145POPC   C3816873   0.122   6.222   5.264
  145POPC   H8X16874   0.020   6.178   5.268
  145POPC   H8Y16875   0.194   6.143   5.293
  145POPC   C3916876   0.153   6.268   5.122
  145POPC   H9X16877   0.257   6.309   5.121
  145POPC   H9Y16878   0.084   6.352   5.095
  145POPC  C31016879   0.142   6.161   5.013
  145POPC  H10X16880   0.035   6.140   4.992
  145POPC  H10Y16881   0.189   6.066   5.046
  145POPC  C31116882   0.212   6.214   4.888
  145POPC  H11X16883   0.322   6.212   4.904
  145POPC  H11Y16884   0.182   6.320   4.872
  145POPC  C31216885   0.179   6.137   4.760
  145POPC  H12X16886   0.069   6.136   4.747
  145POPC  H12Y16887   0.214   6.032   4.771
  145POPC  C31316888   0.244   6.204   4.639
  145POPC  H13X16889   0.354   6.212   4.654
  145POPC  H13Y16890   0.205   6.308   4.631
  145POPC  C31416891   0.215   6.131   4.507
  145POPC  H14X16892   0.242   6.196   4.421
  145POPC  H14Y16893   0.106   6.114   4.502
  145POPC  C31516894   0.291   5.998   4.495
  145POPC  H15X16895   0.244   5.939   4.414
  145POPC  H15Y16896   0.279   5.939   4.589
  145POPC  C31616897   0.439   6.011   4.462
  145POPC  H16X16898   0.485   5.911   4.446
  145POPC  H16Y16899   0.493   6.064   4.543
  145POPC  H16Z16900   0.451   6.069   4.368
  146POPC     N16901   0.732   0.969   6.390
  146POPC   C1216902   0.824   1.062   6.313
  146POPC  H12A16903   0.909   1.089   6.375
  146POPC  H12B16904   0.771   1.154   6.292
  146POPC   C1316905   0.719   1.008   6.532
  146POPC  H13A16906   0.814   1.004   6.585
  146POPC  H13B16907   0.678   1.108   6.543
  146POPC  H13C16908   0.653   0.938   6.584
  146POPC   C1416909   0.594   0.975   6.331
  146POPC  H14A16910   0.596   0.939   6.228
  146POPC  H14B16911   0.524   0.916   6.389
  146POPC  H14C16912   0.556   1.076   6.331
  146POPC   C1516913   0.780   0.827   6.383
  146POPC  H15A16914   0.788   0.799   6.278
  146POPC  H15B16915   0.709   0.760   6.431
  146POPC  H15C16916   0.877   0.814   6.431
  146POPC   C1116917   0.876   1.011   6.177
  146POPC  H11A16918   0.940   0.921   6.189
  146POPC  H11B16919   0.940   1.089   6.133
  146POPC     P16920   0.749   1.020   5.943
  146POPC   O1316921   0.602   1.028   5.919
  146POPC   O1416922   0.830   0.925   5.863
  146POPC   O1216923   0.765   0.979   6.095
  146POPC   O1116924   0.809   1.166   5.934
  146POPC    C116925   0.745   1.268   6.011
  146POPC    HA16926   0.772   1.257   6.118
  146POPC    HB16927   0.633   1.261   6.004
  146POPC    C216928   0.785   1.410   5.964
  146POPC    HS16929   0.714   1.479   6.017
  146POPC   O2116930   0.775   1.423   5.821
  146POPC   C2116931   0.654   1.441   5.775
  146POPC   O2216932   0.554   1.455   5.844
  146POPC   C2216933   0.665   1.477   5.626
  146POPC   H2R16934   0.767   1.512   5.602
  146POPC   H2S16935   0.595   1.562   5.614
  146POPC    C316936   0.928   1.456   6.007
  146POPC    HX16937   0.950   1.425   6.111
  146POPC    HY16938   0.925   1.567   6.008
  146POPC   O3116939   1.030   1.419   5.912
  146POPC   C3116940   1.097   1.309   5.943
  146POPC   O3216941   1.079   1.242   6.043
  146POPC   C3216942   1.206   1.276   5.841
  146POPC   H2X16943   1.271   1.202   5.893
  146POPC   H2Y16944   1.266   1.368   5.825
  146POPC   C2316945   0.621   1.367   5.528
  146POPC   H3R16946   0.606   1.413   5.428
  146POPC   H3S16947   0.521   1.332   5.561
  146POPC   C2416948   0.715   1.246   5.511
  146POPC   H4R16949   0.659   1.166   5.459
  146POPC   H4S16950   0.740   1.207   5.613
  146POPC   C2516951   0.848   1.268   5.434
  146POPC   H5R16952   0.897   1.169   5.429
  146POPC   H5S16953   0.914   1.333   5.493
  146POPC   C2616954   0.841   1.318   5.287
  146POPC   H6R16955   0.797   1.419   5.287
  146POPC   H6S16956   0.774   1.247   5.233
  146POPC   C2716957   0.974   1.321   5.206
  146POPC   H7R16958   1.022   1.224   5.228
  146POPC   H7S16959   1.043   1.398   5.245
  146POPC   C2816960   0.960   1.333   5.050
  146POPC   H8R16961   0.865   1.286   5.018
  146POPC   H8S16962   1.039   1.266   5.011
  146POPC   C2916963   0.984   1.468   4.982
  146POPC   H9116964   1.090   1.497   4.992
  146POPC  C21016965   0.908   1.553   4.907
  146POPC  H10116966   0.951   1.653   4.891
  146POPC  C21116967   0.764   1.550   4.860
  146POPC  H11R16968   0.712   1.637   4.907
  146POPC  H11S16969   0.719   1.461   4.901
  146POPC  C21216970   0.714   1.547   4.711
  146POPC  H12R16971   0.726   1.444   4.672
  146POPC  H12S16972   0.780   1.613   4.653
  146POPC  C21316973   0.564   1.589   4.702
  146POPC  H13R16974   0.555   1.699   4.712
  146POPC  H13S16975   0.516   1.554   4.796
  146POPC  C21416976   0.463   1.543   4.591
  146POPC  H14R16977   0.397   1.631   4.573
  146POPC  H14S16978   0.396   1.466   4.638
  146POPC  C21516979   0.498   1.489   4.450
  146POPC  H15R16980   0.416   1.523   4.383
  146POPC  H15S16981   0.496   1.379   4.446
  146POPC  C21616982   0.627   1.540   4.387
  146POPC  H16R16983   0.715   1.499   4.442
  146POPC  H16S16984   0.627   1.649   4.396
  146POPC  C21716985   0.641   1.512   4.237
  146POPC  H17R16986   0.557   1.563   4.184
  146POPC  H17S16987   0.634   1.403   4.218
  146POPC  C21816988   0.773   1.565   4.184
  146POPC  H18R16989   0.803   1.655   4.242
  146POPC  H18S16990   0.766   1.593   4.076
  146POPC  H18T16991   0.851   1.488   4.197
  146POPC   C3316992   1.158   1.214   5.707
  146POPC   H3X16993   1.120   1.295   5.641
  146POPC   H3Y16994   1.074   1.143   5.726
  146POPC   C3416995   1.270   1.137   5.634
  146POPC   H4X16996   1.297   1.048   5.694
  146POPC   H4Y16997   1.360   1.203   5.631
  146POPC   C3516998   1.234   1.097   5.489
  146POPC   H5X16999   1.323   1.052   5.441
  146POPC   H5Y17000   1.211   1.189   5.431
  146POPC   C3617001   1.116   0.998   5.475
  146POPC   H6X17002   1.025   1.044   5.519
  146POPC   H6Y17003   1.135   0.905   5.533
  146POPC   C3717004   1.090   0.959   5.327
  146POPC   H7X17005   1.156   0.873   5.302
  146POPC   H7Y17006   1.121   1.043   5.261
  146POPC   C3817007   0.944   0.921   5.293
  146POPC   H8X17008   0.876   1.007   5.311
  146POPC   H8Y17009   0.913   0.839   5.362
  146POPC   C3917010   0.924   0.875   5.147
  146POPC   H9X17011   0.830   0.816   5.141
  146POPC   H9Y17012   1.008   0.808   5.119
  146POPC  C31017013   0.913   0.989   5.045
  146POPC  H10X17014   0.995   1.062   5.062
  146POPC  H10Y17015   0.816   1.044   5.060
  146POPC  C31117016   0.923   0.938   4.901
  146POPC  H11X17017   0.856   0.850   4.889
  146POPC  H11Y17018   1.027   0.904   4.884
  146POPC  C31217019   0.886   1.040   4.793
  146POPC  H12X17020   0.937   1.137   4.813
  146POPC  H12Y17021   0.776   1.059   4.796
  146POPC  C31317022   0.926   0.989   4.654
  146POPC  H13X17023   0.890   0.884   4.644
  146POPC  H13Y17024   1.037   0.987   4.646
  146POPC  C31417025   0.866   1.069   4.537
  146POPC  H14X17026   0.757   1.072   4.552
  146POPC  H14Y17027   0.884   1.015   4.442
  146POPC  C31517028   0.923   1.211   4.524
  146POPC  H15X17029   0.930   1.259   4.624
  146POPC  H15Y17030   0.852   1.272   4.464
  146POPC  C31617031   1.059   1.210   4.455
  146POPC  H16X17032   1.051   1.160   4.356
  146POPC  H16Y17033   1.135   1.156   4.516
  146POPC  H16Z17034   1.096   1.313   4.438
  147POPC     N17035   1.951   7.737   6.312
  147POPC   C1217036   1.972   7.807   6.177
  147POPC  H12A17037   1.950   7.736   6.097
  147POPC  H12B17038   2.075   7.837   6.166
  147POPC   C1317039   2.039   7.617   6.321
  147POPC  H13A17040   2.025   7.552   6.235
  147POPC  H13B17041   2.144   7.643   6.324
  147POPC  H13C17042   2.016   7.555   6.408
  147POPC   C1417043   1.975   7.835   6.423
  147POPC  H14A17044   1.952   7.797   6.521
  147POPC  H14B17045   2.076   7.877   6.419
  147POPC  H14C17046   1.910   7.921   6.405
  147POPC   C1517047   1.808   7.697   6.317
  147POPC  H15A17048   1.782   7.638   6.230
  147POPC  H15B17049   1.747   7.788   6.311
  147POPC  H15C17050   1.786   7.642   6.407
  147POPC   C1117051   1.884   7.931   6.143
  147POPC  H11A17052   1.922   7.976   6.048
  147POPC  H11B17053   1.898   8.009   6.221
  147POPC     P17054   1.688   7.843   5.996
  147POPC   O1317055   1.707   7.942   5.889
  147POPC   O1417056   1.551   7.793   6.022
  147POPC   O1217057   1.744   7.901   6.134
  147POPC   O1117058   1.789   7.719   5.975
  147POPC    C117059   1.762   7.580   6.002
  147POPC    HA17060   1.664   7.566   6.053
  147POPC    HB17061   1.841   7.538   6.068
  147POPC    C217062   1.759   7.485   5.875
  147POPC    HS17063   1.715   7.389   5.909
  147POPC   O2117064   1.893   7.463   5.823
  147POPC   C2117065   1.904   7.352   5.745
  147POPC   O2217066   1.820   7.266   5.733
  147POPC   C2217067   2.025   7.358   5.653
  147POPC   H2R17068   1.983   7.390   5.555
  147POPC   H2S17069   2.063   7.254   5.645
  147POPC    C317070   1.665   7.549   5.768
  147POPC    HX17071   1.692   7.657   5.761
  147POPC    HY17072   1.561   7.542   5.807
  147POPC   O3117073   1.675   7.486   5.639
  147POPC   C3117074   1.650   7.562   5.534
  147POPC   O3217075   1.597   7.671   5.535
  147POPC   C3217076   1.700   7.488   5.410
  147POPC   H2X17077   1.637   7.398   5.395
  147POPC   H2Y17078   1.803   7.455   5.433
  147POPC   C2317079   2.141   7.452   5.687
  147POPC   H3R17080   2.202   7.402   5.766
  147POPC   H3S17081   2.106   7.549   5.729
  147POPC   C2417082   2.226   7.475   5.562
  147POPC   H4R17083   2.244   7.376   5.514
  147POPC   H4S17084   2.324   7.515   5.593
  147POPC   C2517085   2.166   7.572   5.458
  147POPC   H5R17086   2.065   7.538   5.427
  147POPC   H5S17087   2.230   7.571   5.368
  147POPC   C2617088   2.158   7.715   5.513
  147POPC   H6R17089   2.260   7.744   5.547
  147POPC   H6S17090   2.090   7.718   5.601
  147POPC   C2717091   2.112   7.821   5.413
  147POPC   H7R17092   2.165   7.810   5.316
  147POPC   H7S17093   2.138   7.920   5.456
  147POPC   C2817094   1.960   7.816   5.392
  147POPC   H8R17095   1.910   7.802   5.490
  147POPC   H8S17096   1.942   7.724   5.332
  147POPC   C2917097   1.906   7.942   5.329
  147POPC   H9117098   1.908   8.030   5.395
  147POPC  C21017099   1.855   7.956   5.205
  147POPC  H10117100   1.826   8.056   5.171
  147POPC  C21117101   1.841   7.848   5.102
  147POPC  H11R17102   1.735   7.835   5.071
  147POPC  H11S17103   1.877   7.750   5.140
  147POPC  C21217104   1.928   7.878   4.980
  147POPC  H12R17105   2.031   7.902   5.017
  147POPC  H12S17106   1.891   7.967   4.925
  147POPC  C21317107   1.941   7.757   4.887
  147POPC  H13R17108   1.845   7.736   4.835
  147POPC  H13S17109   1.968   7.668   4.947
  147POPC  C21417110   2.051   7.784   4.785
  147POPC  H14R17111   2.133   7.837   4.837
  147POPC  H14S17112   2.012   7.850   4.705
  147POPC  C21517113   2.115   7.659   4.724
  147POPC  H15R17114   2.035   7.594   4.684
  147POPC  H15S17115   2.173   7.601   4.800
  147POPC  C21617116   2.202   7.698   4.606
  147POPC  H16R17117   2.300   7.733   4.639
  147POPC  H16S17118   2.154   7.787   4.560
  147POPC  C21717119   2.210   7.590   4.498
  147POPC  H17R17120   2.217   7.489   4.542
  147POPC  H17S17121   2.301   7.606   4.435
  147POPC  C21817122   2.088   7.601   4.408
  147POPC  H18R17123   2.023   7.684   4.442
  147POPC  H18S17124   2.025   7.510   4.416
  147POPC  H18T17125   2.114   7.621   4.302
  147POPC   C3317126   1.704   7.576   5.283
  147POPC   H3X17127   1.755   7.671   5.308
  147POPC   H3Y17128   1.605   7.611   5.249
  147POPC   C3417129   1.774   7.513   5.163
  147POPC   H4X17130   1.884   7.528   5.176
  147POPC   H4Y17131   1.745   7.572   5.073
  147POPC   C3517132   1.752   7.364   5.133
  147POPC   H5X17133   1.649   7.332   5.112
  147POPC   H5Y17134   1.785   7.305   5.220
  147POPC   C3617135   1.837   7.328   5.012
  147POPC   H6X17136   1.857   7.219   5.005
  147POPC   H6Y17137   1.933   7.381   5.029
  147POPC   C3717138   1.786   7.380   4.879
  147POPC   H7X17139   1.756   7.486   4.887
  147POPC   H7Y17140   1.699   7.319   4.846
  147POPC   C3817141   1.899   7.377   4.778
  147POPC   H8X17142   1.947   7.277   4.782
  147POPC   H8Y17143   1.974   7.453   4.807
  147POPC   C3917144   1.846   7.398   4.638
  147POPC   H9X17145   1.760   7.327   4.635
  147POPC   H9Y17146   1.921   7.368   4.562
  147POPC  C31017147   1.787   7.534   4.603
  147POPC  H10X17148   1.866   7.605   4.570
  147POPC  H10Y17149   1.736   7.581   4.690
  147POPC  C31117150   1.688   7.512   4.490
  147POPC  H11X17151   1.603   7.454   4.529
  147POPC  H11Y17152   1.735   7.448   4.412
  147POPC  C31217153   1.644   7.641   4.425
  147POPC  H12X17154   1.641   7.721   4.501
  147POPC  H12Y17155   1.544   7.635   4.378
  147POPC  C31317156   1.744   7.670   4.314
  147POPC  H13X17157   1.706   7.626   4.218
  147POPC  H13Y17158   1.840   7.622   4.337
  147POPC  C31417159   1.770   7.817   4.303
  147POPC  H14X17160   1.670   7.867   4.304
  147POPC  H14Y17161   1.824   7.838   4.207
  147POPC  C31517162   1.851   7.878   4.415
  147POPC  H15X17163   1.960   7.864   4.395
  147POPC  H15Y17164   1.826   7.835   4.514
  147POPC  C31617165   1.822   8.025   4.411
  147POPC  H16X17166   1.801   8.056   4.307
  147POPC  H16Y17167   1.912   8.080   4.447
  147POPC  H16Z17168   1.732   8.050   4.473
  148POPC     N17169   1.295   7.443   6.330
  148POPC   C1217170   1.258   7.300   6.290
  148POPC  H12A17171   1.210   7.302   6.192
  148POPC  H12B17172   1.187   7.261   6.362
  148POPC   C1317173   1.398   7.433   6.435
  148POPC  H13A17174   1.357   7.397   6.529
  148POPC  H13B17175   1.470   7.358   6.403
  148POPC  H13C17176   1.450   7.526   6.449
  148POPC   C1417177   1.360   7.513   6.215
  148POPC  H14A17178   1.291   7.515   6.132
  148POPC  H14B17179   1.396   7.612   6.238
  148POPC  H14C17180   1.444   7.451   6.180
  148POPC   C1517181   1.172   7.516   6.375
  148POPC  H15A17182   1.098   7.514   6.296
  148POPC  H15B17183   1.193   7.619   6.398
  148POPC  H15C17184   1.132   7.466   6.463
  148POPC   C1117185   1.373   7.198   6.276
  148POPC  H11A17186   1.329   7.097   6.255
  148POPC  H11B17187   1.429   7.185   6.371
  148POPC     P17188   1.417   7.206   6.024
  148POPC   O1317189   1.358   7.071   6.023
  148POPC   O1417190   1.524   7.240   5.929
  148POPC   O1217191   1.465   7.237   6.173
  148POPC   O1117192   1.299   7.313   6.015
  148POPC    C117193   1.285   7.387   5.894
  148POPC    HA17194   1.383   7.421   5.851
  148POPC    HB17195   1.228   7.480   5.916
  148POPC    C217196   1.209   7.302   5.792
  148POPC    HS17197   1.173   7.211   5.844
  148POPC   O2117198   1.296   7.271   5.681
  148POPC   C2117199   1.344   7.147   5.673
  148POPC   O2217200   1.312   7.054   5.745
  148POPC   C2217201   1.438   7.131   5.553
  148POPC   H2R17202   1.452   7.022   5.537
  148POPC   H2S17203   1.536   7.174   5.585
  148POPC    C317204   1.084   7.384   5.749
  148POPC    HX17205   1.024   7.404   5.840
  148POPC    HY17206   1.016   7.329   5.680
  148POPC   O3117207   1.128   7.509   5.694
  148POPC   C3117208   1.169   7.491   5.569
  148POPC   O3217209   1.123   7.408   5.492
  148POPC   C3217210   1.288   7.580   5.542
  148POPC   H2X17211   1.381   7.524   5.564
  148POPC   H2Y17212   1.284   7.669   5.608
  148POPC   C2317213   1.388   7.200   5.423
  148POPC   H3R17214   1.466   7.275   5.395
  148POPC   H3S17215   1.296   7.257   5.443
  148POPC   C2417216   1.361   7.111   5.301
  148POPC   H4R17217   1.416   7.015   5.314
  148POPC   H4S17218   1.403   7.159   5.210
  148POPC   C2517219   1.211   7.083   5.277
  148POPC   H5R17220   1.169   7.055   5.375
  148POPC   H5S17221   1.200   6.996   5.209
  148POPC   C2617222   1.124   7.199   5.224
  148POPC   H6R17223   1.185   7.291   5.233
  148POPC   H6S17224   1.037   7.214   5.291
  148POPC   C2717225   1.077   7.195   5.077
  148POPC   H7R17226   1.176   7.197   5.028
  148POPC   H7S17227   1.023   7.289   5.052
  148POPC   C2817228   1.001   7.075   5.012
  148POPC   H8R17229   1.003   6.986   5.077
  148POPC   H8S17230   1.072   7.051   4.931
  148POPC   C2917231   0.865   7.092   4.945
  148POPC   H9117232   0.785   7.078   5.019
  148POPC  C21017233   0.823   7.116   4.817
  148POPC  H10117234   0.714   7.121   4.804
  148POPC  C21117235   0.894   7.136   4.683
  148POPC  H11R17236   0.847   7.076   4.602
  148POPC  H11S17237   0.997   7.097   4.685
  148POPC  C21217238   0.890   7.285   4.635
  148POPC  H12R17239   0.925   7.350   4.717
  148POPC  H12S17240   0.784   7.313   4.613
  148POPC  C21317241   0.976   7.313   4.509
  148POPC  H13R17242   0.935   7.252   4.426
  148POPC  H13S17243   1.078   7.274   4.524
  148POPC  C21417244   0.985   7.463   4.462
  148POPC  H14R17245   1.051   7.519   4.530
  148POPC  H14S17246   0.885   7.510   4.473
  148POPC  C21517247   1.032   7.476   4.314
  148POPC  H15R17248   0.995   7.384   4.264
  148POPC  H15S17249   1.140   7.474   4.304
  148POPC  C21617250   0.986   7.595   4.227
  148POPC  H16R17251   0.881   7.617   4.252
  148POPC  H16S17252   0.989   7.562   4.121
  148POPC  C21717253   1.073   7.723   4.236
  148POPC  H17R17254   1.091   7.741   4.344
  148POPC  H17S17255   1.014   7.806   4.192
  148POPC  C21817256   1.209   7.727   4.168
  148POPC  H18R17257   1.264   7.820   4.194
  148POPC  H18S17258   1.199   7.724   4.058
  148POPC  H18T17259   1.269   7.642   4.204
  148POPC   C3317260   1.280   7.620   5.395
  148POPC   H3X17261   1.317   7.724   5.380
  148POPC   H3Y17262   1.176   7.610   5.361
  148POPC   C3417263   1.349   7.524   5.303
  148POPC   H4X17264   1.315   7.421   5.323
  148POPC   H4Y17265   1.456   7.526   5.327
  148POPC   C3517266   1.321   7.554   5.156
  148POPC   H5X17267   1.337   7.662   5.135
  148POPC   H5Y17268   1.215   7.530   5.131
  148POPC   C3617269   1.414   7.471   5.071
  148POPC   H6X17270   1.364   7.380   5.031
  148POPC   H6Y17271   1.492   7.433   5.140
  148POPC   C3717272   1.480   7.552   4.959
  148POPC   H7X17273   1.561   7.488   4.919
  148POPC   H7Y17274   1.525   7.647   4.996
  148POPC   C3817275   1.382   7.577   4.847
  148POPC   H8X17276   1.312   7.661   4.864
  148POPC   H8Y17277   1.319   7.485   4.851
  148POPC   C3917278   1.442   7.575   4.706
  148POPC   H9X17279   1.540   7.522   4.711
  148POPC   H9Y17280   1.458   7.678   4.666
  148POPC  C31017281   1.345   7.490   4.625
  148POPC  H10X17282   1.243   7.530   4.651
  148POPC  H10Y17283   1.358   7.388   4.667
  148POPC  C31117284   1.346   7.469   4.474
  148POPC  H11X17285   1.369   7.558   4.414
  148POPC  H11Y17286   1.238   7.453   4.460
  148POPC  C31217287   1.401   7.334   4.425
  148POPC  H12X17288   1.318   7.259   4.423
  148POPC  H12Y17289   1.473   7.298   4.500
  148POPC  C31317290   1.470   7.337   4.287
  148POPC  H13X17291   1.524   7.241   4.272
  148POPC  H13Y17292   1.546   7.418   4.286
  148POPC  C31417293   1.374   7.355   4.168
  148POPC  H14X17294   1.273   7.374   4.206
  148POPC  H14Y17295   1.367   7.260   4.113
  148POPC  C31517296   1.413   7.469   4.073
  148POPC  H15X17297   1.510   7.446   4.022
  148POPC  H15Y17298   1.434   7.561   4.131
  148POPC  C31617299   1.304   7.495   3.968
  148POPC  H16X17300   1.294   7.410   3.898
  148POPC  H16Y17301   1.323   7.589   3.910
  148POPC  H16Z17302   1.205   7.505   4.018
  149POPC     N17303   7.732   1.063   6.246
  149POPC   C1217304   7.583   1.033   6.227
  149POPC  H12A17305   7.561   0.938   6.274
  149POPC  H12B17306   7.560   1.024   6.121
  149POPC   C1317307   7.754   1.124   6.381
  149POPC  H13A17308   7.706   1.068   6.460
  149POPC  H13B17309   7.860   1.140   6.402
  149POPC  H13C17310   7.714   1.225   6.380
  149POPC   C1417311   7.812   0.940   6.227
  149POPC  H14A17312   7.786   0.860   6.297
  149POPC  H14B17313   7.790   0.892   6.132
  149POPC  H14C17314   7.919   0.957   6.231
  149POPC   C1517315   7.772   1.168   6.145
  149POPC  H15A17316   7.746   1.139   6.044
  149POPC  H15B17317   7.876   1.195   6.151
  149POPC  H15C17318   7.712   1.259   6.161
  149POPC   C1117319   7.478   1.134   6.282
  149POPC  H11A17320   7.492   1.147   6.391
  149POPC  H11B17321   7.375   1.092   6.269
  149POPC     P17322   7.446   1.279   6.065
  149POPC   O1317323   7.570   1.328   6.009
  149POPC   O1417324   7.329   1.367   6.049
  149POPC   O1217325   7.486   1.260   6.218
  149POPC   O1117326   7.432   1.133   6.002
  149POPC    C117327   7.410   1.115   5.861
  149POPC    HA17328   7.418   1.208   5.801
  149POPC    HB17329   7.310   1.074   5.856
  149POPC    C217330   7.494   1.001   5.797
  149POPC    HS17331   7.443   0.909   5.836
  149POPC   O2117332   7.629   1.015   5.841
  149POPC   C2117333   7.679   0.902   5.883
  149POPC   O2217334   7.622   0.796   5.897
  149POPC   C2217335   7.826   0.918   5.908
  149POPC   H2R17336   7.855   0.850   5.991
  149POPC   H2S17337   7.855   1.023   5.929
  149POPC    C317338   7.496   0.983   5.639
  149POPC    HX17339   7.393   0.959   5.607
  149POPC    HY17340   7.555   0.889   5.629
  149POPC   O3117341   7.551   1.091   5.555
  149POPC   C3117342   7.602   1.044   5.436
  149POPC   O3217343   7.618   0.926   5.414
  149POPC   C3217344   7.631   1.153   5.327
  149POPC   H2X17345   7.740   1.171   5.332
  149POPC   H2Y17346   7.583   1.247   5.356
  149POPC   C2317347   7.897   0.863   5.786
  149POPC   H3R17348   7.855   0.762   5.761
  149POPC   H3S17349   8.004   0.851   5.811
  149POPC   C2417350   7.891   0.953   5.663
  149POPC   H4R17351   7.793   1.005   5.657
  149POPC   H4S17352   7.902   0.890   5.572
  149POPC   C2517353   8.003   1.057   5.666
  149POPC   H5R17354   8.102   1.010   5.687
  149POPC   H5S17355   7.983   1.129   5.749
  149POPC   C2617356   8.010   1.131   5.533
  149POPC   H6R17357   8.054   1.231   5.551
  149POPC   H6S17358   7.907   1.147   5.495
  149POPC   C2717359   8.094   1.060   5.427
  149POPC   H7R17360   8.039   0.971   5.389
  149POPC   H7S17361   8.188   1.023   5.475
  149POPC   C2817362   8.132   1.153   5.312
  149POPC   H8R17363   8.202   1.099   5.245
  149POPC   H8S17364   8.187   1.241   5.351
  149POPC   C2917365   8.009   1.201   5.239
  149POPC   H9117366   7.969   1.297   5.274
  149POPC  C21017367   7.951   1.141   5.135
  149POPC  H10117368   7.860   1.186   5.092
  149POPC  C21117369   7.998   1.013   5.071
  149POPC  H11R17370   8.079   0.965   5.130
  149POPC  H11S17371   8.041   1.035   4.972
  149POPC  C21217372   7.888   0.907   5.051
  149POPC  H12R17373   7.831   0.889   5.144
  149POPC  H12S17374   7.939   0.815   5.023
  149POPC  C21317375   7.797   0.931   4.930
  149POPC  H13R17376   7.771   1.037   4.939
  149POPC  H13S17377   7.705   0.869   4.938
  149POPC  C21417378   7.862   0.908   4.793
  149POPC  H14R17379   7.877   0.799   4.777
  149POPC  H14S17380   7.963   0.955   4.790
  149POPC  C21517381   7.777   0.965   4.679
  149POPC  H15R17382   7.676   0.919   4.686
  149POPC  H15S17383   7.822   0.933   4.583
  149POPC  C21617384   7.763   1.119   4.678
  149POPC  H16R17385   7.774   1.162   4.779
  149POPC  H16S17386   7.662   1.148   4.641
  149POPC  C21717387   7.871   1.185   4.592
  149POPC  H17R17388   7.878   1.130   4.496
  149POPC  H17S17389   7.964   1.170   4.649
  149POPC  C21817390   7.857   1.334   4.565
  149POPC  H18R17391   7.950   1.372   4.519
  149POPC  H18S17392   7.840   1.391   4.659
  149POPC  H18T17393   7.774   1.354   4.494
  149POPC   C3317394   7.596   1.115   5.177
  149POPC   H3X17395   7.522   1.033   5.171
  149POPC   H3Y17396   7.687   1.071   5.133
  149POPC   C3417397   7.547   1.231   5.083
  149POPC   H4X17398   7.624   1.311   5.094
  149POPC   H4Y17399   7.452   1.273   5.117
  149POPC   C3517400   7.537   1.206   4.929
  149POPC   H5X17401   7.622   1.144   4.901
  149POPC   H5Y17402   7.553   1.305   4.878
  149POPC   C3617403   7.418   1.137   4.858
  149POPC   H6X17404   7.401   1.035   4.898
  149POPC   H6Y17405   7.448   1.126   4.750
  149POPC   C3717406   7.285   1.214   4.854
  149POPC   H7X17407   7.300   1.320   4.826
  149POPC   H7Y17408   7.243   1.208   4.956
  149POPC   C3817409   7.179   1.156   4.759
  149POPC   H8X17410   7.079   1.168   4.803
  149POPC   H8Y17411   7.197   1.047   4.752
  149POPC   C3917412   7.168   1.232   4.626
  149POPC   H9X17413   7.264   1.287   4.610
  149POPC   H9Y17414   7.086   1.306   4.635
  149POPC  C31017415   7.139   1.148   4.502
  149POPC  H10X17416   7.160   1.215   4.415
  149POPC  H10Y17417   7.031   1.121   4.498
  149POPC  C31117418   7.226   1.024   4.486
  149POPC  H11X17419   7.174   0.951   4.421
  149POPC  H11Y17420   7.244   0.972   4.582
  149POPC  C31217421   7.360   1.062   4.425
  149POPC  H12X17422   7.387   1.165   4.458
  149POPC  H12Y17423   7.349   1.065   4.315
  149POPC  C31317424   7.474   0.970   4.467
  149POPC  H13X17425   7.451   0.864   4.443
  149POPC  H13Y17426   7.486   0.978   4.578
  149POPC  C31417427   7.605   1.014   4.402
  149POPC  H14X17428   7.685   0.943   4.429
  149POPC  H14Y17429   7.632   1.115   4.441
  149POPC  C31517430   7.603   1.027   4.250
  149POPC  H15X17431   7.526   1.101   4.219
  149POPC  H15Y17432   7.575   0.930   4.205
  149POPC  C31617433   7.738   1.072   4.197
  149POPC  H16X17434   7.758   1.175   4.234
  149POPC  H16Y17435   7.741   1.072   4.086
  149POPC  H16Z17436   7.819   1.006   4.235
  150POPC     N17437   0.706   7.464   6.224
  150POPC   C1217438   0.659   7.322   6.189
  150POPC  H12A17439   0.586   7.290   6.264
  150POPC  H12B17440   0.742   7.254   6.194
  150POPC   C1317441   0.583   7.548   6.249
  150POPC  H13A17442   0.515   7.541   6.163
  150POPC  H13B17443   0.524   7.505   6.330
  150POPC  H13C17444   0.602   7.652   6.267
  150POPC   C1417445   0.787   7.461   6.349
  150POPC  H14A17446   0.808   7.563   6.380
  150POPC  H14B17447   0.731   7.412   6.428
  150POPC  H14C17448   0.879   7.407   6.334
  150POPC   C1517449   0.784   7.523   6.111
  150POPC  H15A17450   0.880   7.475   6.099
  150POPC  H15B17451   0.797   7.630   6.122
  150POPC  H15C17452   0.727   7.506   6.020
  150POPC   C1117453   0.584   7.300   6.054
  150POPC  H11A17454   0.582   7.192   6.030
  150POPC  H11B17455   0.636   7.348   5.969
  150POPC     P17456   0.352   7.261   6.156
  150POPC   O1317457   0.383   7.298   6.297
  150POPC   O1417458   0.359   7.116   6.124
  150POPC   O1217459   0.450   7.347   6.062
  150POPC   O1117460   0.207   7.310   6.116
  150POPC    C117461   0.179   7.435   6.054
  150POPC    HA17462   0.249   7.514   6.090
  150POPC    HB17463   0.078   7.471   6.084
  150POPC    C217464   0.179   7.438   5.896
  150POPC    HS17465   0.073   7.423   5.864
  150POPC   O2117466   0.261   7.335   5.836
  150POPC   C2117467   0.266   7.342   5.702
  150POPC   O2217468   0.182   7.394   5.631
  150POPC   C2217469   0.394   7.276   5.649
  150POPC   H2R17470   0.365   7.200   5.575
  150POPC   H2S17471   0.448   7.227   5.733
  150POPC    C317472   0.226   7.579   5.851
  150POPC    HX17473   0.207   7.655   5.930
  150POPC    HY17474   0.161   7.608   5.766
  150POPC   O3117475   0.364   7.576   5.805
  150POPC   C3117476   0.459   7.603   5.893
  150POPC   O3217477   0.443   7.638   6.008
  150POPC   C3217478   0.601   7.592   5.830
  150POPC   H2X17479   0.626   7.487   5.810
  150POPC   H2Y17480   0.663   7.618   5.918
  150POPC   C2317481   0.485   7.378   5.578
  150POPC   H3R17482   0.535   7.435   5.656
  150POPC   H3S17483   0.423   7.451   5.520
  150POPC   C2417484   0.592   7.320   5.485
  150POPC   H4R17485   0.537   7.276   5.399
  150POPC   H4S17486   0.648   7.240   5.539
  150POPC   C2517487   0.694   7.423   5.434
  150POPC   H5R17488   0.758   7.452   5.521
  150POPC   H5S17489   0.638   7.510   5.393
  150POPC   C2617490   0.791   7.385   5.321
  150POPC   H6R17491   0.875   7.330   5.368
  150POPC   H6S17492   0.838   7.477   5.279
  150POPC   C2717493   0.720   7.305   5.210
  150POPC   H7R17494   0.673   7.219   5.260
  150POPC   H7S17495   0.800   7.267   5.143
  150POPC   C2817496   0.615   7.388   5.130
  150POPC   H8R17497   0.682   7.459   5.077
  150POPC   H8S17498   0.555   7.449   5.201
  150POPC   C2917499   0.528   7.324   5.021
  150POPC   H9117500   0.591   7.256   4.962
  150POPC  C21017501   0.399   7.333   4.974
  150POPC  H10117502   0.388   7.296   4.874
  150POPC  C21117503   0.264   7.397   5.005
  150POPC  H11R17504   0.265   7.505   4.975
  150POPC  H11S17505   0.241   7.396   5.113
  150POPC  C21217506   0.139   7.337   4.927
  150POPC  H12R17507   0.051   7.386   4.976
  150POPC  H12S17508   0.124   7.230   4.948
  150POPC  C21317509   0.119   7.360   4.774
  150POPC  H13R17510   0.204   7.423   4.737
  150POPC  H13S17511   0.028   7.424   4.762
  150POPC  C21417512   0.102   7.239   4.674
  150POPC  H14R17513   0.204   7.208   4.647
  150POPC  H14S17514   0.058   7.281   4.580
  150POPC  C21517515   0.020   7.109   4.708
  150POPC  H15R17516  -0.084   7.143   4.723
  150POPC  H15S17517   0.052   7.066   4.804
  150POPC  C21617518   0.013   6.996   4.598
  150POPC  H16R17519   0.056   7.033   4.503
  150POPC  H16S17520  -0.096   6.980   4.578
  150POPC  C21717521   0.062   6.849   4.625
  150POPC  H17R17522   0.163   6.841   4.669
  150POPC  H17S17523  -0.006   6.805   4.701
  150POPC  C21817524   0.067   6.754   4.503
  150POPC  H18R17525   0.162   6.765   4.447
  150POPC  H18S17526  -0.018   6.770   4.434
  150POPC  H18T17527   0.063   6.648   4.539
  150POPC   C3317528   0.658   7.698   5.728
  150POPC   H3X17529   0.769   7.689   5.742
  150POPC   H3Y17530   0.631   7.799   5.759
  150POPC   C3417531   0.640   7.683   5.575
  150POPC   H4X17532   0.557   7.614   5.552
  150POPC   H4Y17533   0.737   7.642   5.538
  150POPC   C3517534   0.624   7.809   5.486
  150POPC   H5X17535   0.695   7.881   5.532
  150POPC   H5Y17536   0.524   7.853   5.494
  150POPC   C3617537   0.665   7.794   5.336
  150POPC   H6X17538   0.737   7.710   5.325
  150POPC   H6Y17539   0.715   7.890   5.315
  150POPC   C3717540   0.572   7.804   5.212
  150POPC   H7X17541   0.539   7.910   5.199
  150POPC   H7Y17542   0.486   7.741   5.233
  150POPC   C3817543   0.641   7.754   5.081
  150POPC   H8X17544   0.714   7.679   5.119
  150POPC   H8Y17545   0.697   7.833   5.029
  150POPC   C3917546   0.557   7.663   4.985
  150POPC   H9X17547   0.514   7.768   4.974
  150POPC   H9Y17548   0.505   7.601   5.061
  150POPC  C31017549   0.453   7.650   4.869
  150POPC  H10X17550   0.353   7.684   4.903
  150POPC  H10Y17551   0.442   7.541   4.852
  150POPC  C31117552   0.479   7.702   4.729
  150POPC  H11X17553   0.497   7.811   4.729
  150POPC  H11Y17554   0.385   7.683   4.672
  150POPC  C31217555   0.591   7.625   4.660
  150POPC  H12X17556   0.559   7.520   4.638
  150POPC  H12Y17557   0.679   7.619   4.728
  150POPC  C31317558   0.630   7.696   4.532
  150POPC  H13X17559   0.715   7.643   4.483
  150POPC  H13Y17560   0.667   7.796   4.560
  150POPC  C31417561   0.516   7.711   4.432
  150POPC  H14X17562   0.546   7.783   4.352
  150POPC  H14Y17563   0.424   7.752   4.478
  150POPC  C31517564   0.490   7.576   4.369
  150POPC  H15X17565   0.451   7.502   4.442
  150POPC  H15Y17566   0.591   7.543   4.340
  150POPC  C31617567   0.401   7.580   4.246
  150POPC  H16X17568   0.424   7.501   4.174
  150POPC  H16Y17569   0.416   7.676   4.192
  150POPC  H16Z17570   0.295   7.564   4.274
  151POPC     N17571   3.463   3.314   2.125
  151POPC   C1217572   3.506   3.221   2.238
  151POPC  H12A17573   3.550   3.132   2.194
  151POPC  H12B17574   3.420   3.190   2.295
  151POPC   C1317575   3.402   3.439   2.185
  151POPC  H13A17576   3.470   3.472   2.265
  151POPC  H13B17577   3.392   3.519   2.113
  151POPC  H13C17578   3.307   3.418   2.232
  151POPC   C1417579   3.582   3.352   2.044
  151POPC  H14A17580   3.620   3.271   1.983
  151POPC  H14B17581   3.563   3.438   1.981
  151POPC  H14C17582   3.661   3.383   2.113
  151POPC   C1517583   3.359   3.256   2.035
  151POPC  H15A17584   3.264   3.244   2.086
  151POPC  H15B17585   3.389   3.159   1.996
  151POPC  H15C17586   3.346   3.321   1.950
  151POPC   C1117587   3.612   3.275   2.341
  151POPC  H11A17588   3.711   3.282   2.291
  151POPC  H11B17589   3.622   3.201   2.424
  151POPC     P17590   3.599   3.457   2.539
  151POPC   O1317591   3.615   3.605   2.529
  151POPC   O1417592   3.696   3.375   2.614
  151POPC   O1217593   3.578   3.403   2.392
  151POPC   O1117594   3.456   3.430   2.605
  151POPC    C117595   3.344   3.389   2.528
  151POPC    HA17596   3.375   3.318   2.449
  151POPC    HB17597   3.304   3.478   2.477
  151POPC    C217598   3.235   3.305   2.605
  151POPC    HS17599   3.195   3.233   2.530
  151POPC   O2117600   3.123   3.379   2.654
  151POPC   C2117601   3.082   3.493   2.608
  151POPC   O2217602   3.085   3.535   2.493
  151POPC   C2217603   3.045   3.574   2.731
  151POPC   H2R17604   2.936   3.563   2.747
  151POPC   H2S17605   3.068   3.681   2.709
  151POPC    C317606   3.284   3.221   2.729
  151POPC    HX17607   3.352   3.141   2.691
  151POPC    HY17608   3.190   3.175   2.767
  151POPC   O3117609   3.348   3.289   2.840
  151POPC   C3117610   3.378   3.208   2.943
  151POPC   O3217611   3.303   3.174   3.031
  151POPC   C3217612   3.524   3.163   2.925
  151POPC   H2X17613   3.577   3.239   2.864
  151POPC   H2Y17614   3.523   3.068   2.867
  151POPC   C2317615   3.126   3.525   2.854
  151POPC   H3R17616   3.235   3.529   2.830
  151POPC   H3S17617   3.102   3.419   2.878
  151POPC   C2417618   3.101   3.604   2.981
  151POPC   H4R17619   3.062   3.705   2.956
  151POPC   H4S17620   3.199   3.616   3.033
  151POPC   C2517621   3.009   3.533   3.079
  151POPC   H5R17622   2.922   3.486   3.028
  151POPC   H5S17623   2.969   3.612   3.147
  151POPC   C2617624   3.086   3.431   3.164
  151POPC   H6R17625   3.196   3.447   3.157
  151POPC   H6S17626   3.067   3.328   3.127
  151POPC   C2717627   3.045   3.451   3.310
  151POPC   H7R17628   2.937   3.459   3.316
  151POPC   H7S17629   3.073   3.552   3.341
  151POPC   C2817630   3.102   3.349   3.410
  151POPC   H8R17631   3.063   3.374   3.511
  151POPC   H8S17632   3.212   3.365   3.413
  151POPC   C2917633   3.067   3.206   3.377
  151POPC   H9117634   2.960   3.186   3.361
  151POPC  C21017635   3.155   3.105   3.366
  151POPC  H10117636   3.118   3.004   3.344
  151POPC  C21117637   3.304   3.118   3.386
  151POPC  H11R17638   3.342   3.204   3.326
  151POPC  H11S17639   3.356   3.027   3.347
  151POPC  C21217640   3.344   3.141   3.533
  151POPC  H12R17641   3.305   3.240   3.564
  151POPC  H12S17642   3.455   3.145   3.541
  151POPC  C21317643   3.290   3.038   3.633
  151POPC  H13R17644   3.355   2.949   3.630
  151POPC  H13S17645   3.189   3.004   3.603
  151POPC  C21417646   3.277   3.095   3.776
  151POPC  H14R17647   3.367   3.154   3.801
  151POPC  H14S17648   3.274   3.011   3.847
  151POPC  C21517649   3.149   3.180   3.792
  151POPC  H15R17650   3.062   3.118   3.760
  151POPC  H15S17651   3.153   3.268   3.724
  151POPC  C21617652   3.120   3.228   3.935
  151POPC  H16R17653   3.109   3.142   4.004
  151POPC  H16S17654   3.022   3.282   3.934
  151POPC  C21717655   3.225   3.322   3.994
  151POPC  H17R17656   3.237   3.411   3.928
  151POPC  H17S17657   3.324   3.270   4.001
  151POPC  C21817658   3.183   3.367   4.134
  151POPC  H18R17659   3.244   3.453   4.168
  151POPC  H18S17660   3.197   3.282   4.205
  151POPC  H18T17661   3.076   3.396   4.136
  151POPC   C3317662   3.599   3.143   3.059
  151POPC   H3X17663   3.701   3.106   3.033
  151POPC   H3Y17664   3.549   3.064   3.121
  151POPC   C3417665   3.612   3.275   3.137
  151POPC   H4X17666   3.511   3.313   3.166
  151POPC   H4Y17667   3.656   3.349   3.067
  151POPC   C3517668   3.701   3.265   3.261
  151POPC   H5X17669   3.765   3.175   3.250
  151POPC   H5Y17670   3.641   3.248   3.353
  151POPC   C3617671   3.795   3.385   3.274
  151POPC   H6X17672   3.834   3.404   3.171
  151POPC   H6Y17673   3.881   3.359   3.339
  151POPC   C3717674   3.732   3.516   3.322
  151POPC   H7X17675   3.690   3.568   3.233
  151POPC   H7Y17676   3.808   3.583   3.366
  151POPC   C3817677   3.620   3.505   3.425
  151POPC   H8X17678   3.538   3.442   3.383
  151POPC   H8Y17679   3.583   3.609   3.437
  151POPC   C3917680   3.655   3.458   3.567
  151POPC   H9X17681   3.721   3.533   3.617
  151POPC   H9Y17682   3.710   3.361   3.560
  151POPC  C31017683   3.524   3.441   3.645
  151POPC  H10X17684   3.464   3.367   3.587
  151POPC  H10Y17685   3.466   3.535   3.645
  151POPC  C31117686   3.533   3.394   3.791
  151POPC  H11X17687   3.436   3.346   3.816
  151POPC  H11Y17688   3.543   3.482   3.858
  151POPC  C31217689   3.649   3.298   3.815
  151POPC  H12X17690   3.743   3.357   3.806
  151POPC  H12Y17691   3.650   3.219   3.736
  151POPC  C31317692   3.648   3.231   3.952
  151POPC  H13X17693   3.581   3.142   3.948
  151POPC  H13Y17694   3.608   3.300   4.030
  151POPC  C31417695   3.792   3.190   3.987
  151POPC  H14X17696   3.848   3.283   4.011
  151POPC  H14Y17697   3.839   3.145   3.897
  151POPC  C31517698   3.807   3.092   4.104
  151POPC  H15X17699   3.914   3.093   4.134
  151POPC  H15Y17700   3.783   2.989   4.069
  151POPC  C31617701   3.722   3.125   4.225
  151POPC  H16X17702   3.753   3.066   4.313
  151POPC  H16Y17703   3.615   3.105   4.204
  151POPC  H16Z17704   3.731   3.233   4.249
  152POPC     N17705   5.158   3.629   2.143
  152POPC   C1217706   5.183   3.502   2.227
  152POPC  H12A17707   5.268   3.449   2.188
  152POPC  H12B17708   5.098   3.435   2.217
  152POPC   C1317709   5.029   3.695   2.184
  152POPC  H13A17710   4.945   3.638   2.148
  152POPC  H13B17711   5.025   3.697   2.293
  152POPC  H13C17712   5.021   3.796   2.147
  152POPC   C1417713   5.272   3.727   2.157
  152POPC  H14A17714   5.296   3.741   2.262
  152POPC  H14B17715   5.360   3.691   2.105
  152POPC  H14C17716   5.246   3.824   2.117
  152POPC   C1517717   5.149   3.588   1.999
  152POPC  H15A17718   5.128   3.673   1.935
  152POPC  H15B17719   5.072   3.514   1.984
  152POPC  H15C17720   5.243   3.546   1.965
  152POPC   C1117721   5.202   3.515   2.380
  152POPC  H11A17722   5.294   3.574   2.402
  152POPC  H11B17723   5.215   3.413   2.424
  152POPC     P17724   5.083   3.608   2.591
  152POPC   O1317725   5.113   3.486   2.670
  152POPC   O1417726   4.954   3.676   2.616
  152POPC   O1217727   5.087   3.575   2.436
  152POPC   O1117728   5.202   3.711   2.606
  152POPC    C117729   5.208   3.823   2.517
  152POPC    HA17730   5.107   3.864   2.492
  152POPC    HB17731   5.257   3.789   2.423
  152POPC    C217732   5.296   3.939   2.572
  152POPC    HS17733   5.353   3.984   2.488
  152POPC   O2117734   5.387   3.891   2.672
  152POPC   C2117735   5.472   3.800   2.631
  152POPC   O2217736   5.505   3.777   2.516
  152POPC   C2217737   5.533   3.731   2.754
  152POPC   H2R17738   5.480   3.770   2.843
  152POPC   H2S17739   5.639   3.760   2.761
  152POPC    C317740   5.208   4.053   2.633
  152POPC    HX17741   5.159   4.105   2.548
  152POPC    HY17742   5.274   4.129   2.681
  152POPC   O3117743   5.106   4.002   2.721
  152POPC   C3117744   5.150   3.976   2.843
  152POPC   O3217745   5.259   4.005   2.889
  152POPC   C3217746   5.039   3.913   2.928
  152POPC   H2X17747   5.012   3.814   2.886
  152POPC   H2Y17748   4.951   3.979   2.922
  152POPC   C2317749   5.519   3.576   2.750
  152POPC   H3R17750   5.575   3.533   2.664
  152POPC   H3S17751   5.411   3.549   2.737
  152POPC   C2417752   5.567   3.509   2.879
  152POPC   H4R17753   5.675   3.529   2.895
  152POPC   H4S17754   5.554   3.399   2.869
  152POPC   C2517755   5.488   3.556   3.002
  152POPC   H5R17756   5.379   3.552   2.981
  152POPC   H5S17757   5.514   3.662   3.022
  152POPC   C2617758   5.520   3.475   3.127
  152POPC   H6R17759   5.627   3.444   3.126
  152POPC   H6S17760   5.458   3.383   3.128
  152POPC   C2717761   5.496   3.557   3.254
  152POPC   H7R17762   5.571   3.640   3.257
  152POPC   H7S17763   5.520   3.492   3.341
  152POPC   C2817764   5.355   3.620   3.265
  152POPC   H8R17765   5.348   3.700   3.188
  152POPC   H8S17766   5.347   3.672   3.363
  152POPC   C2917767   5.239   3.526   3.249
  152POPC   H9117768   5.177   3.542   3.159
  152POPC  C21017769   5.206   3.427   3.334
  152POPC  H10117770   5.117   3.366   3.314
  152POPC  C21117771   5.282   3.395   3.460
  152POPC  H11R17772   5.377   3.452   3.466
  152POPC  H11S17773   5.310   3.287   3.463
  152POPC  C21217774   5.207   3.432   3.589
  152POPC  H12R17775   5.150   3.343   3.621
  152POPC  H12S17776   5.134   3.514   3.572
  152POPC  C21317777   5.302   3.477   3.702
  152POPC  H13R17778   5.298   3.587   3.710
  152POPC  H13S17779   5.407   3.451   3.676
  152POPC  C21417780   5.269   3.412   3.838
  152POPC  H14R17781   5.332   3.458   3.917
  152POPC  H14S17782   5.298   3.305   3.828
  152POPC  C21517783   5.121   3.412   3.881
  152POPC  H15R17784   5.114   3.350   3.973
  152POPC  H15S17785   5.059   3.366   3.802
  152POPC  C21617786   5.065   3.550   3.916
  152POPC  H16R17787   5.097   3.617   3.834
  152POPC  H16S17788   5.114   3.581   4.011
  152POPC  C21717789   4.913   3.564   3.931
  152POPC  H17R17790   4.862   3.522   3.842
  152POPC  H17S17791   4.893   3.674   3.930
  152POPC  C21817792   4.852   3.510   4.060
  152POPC  H18R17793   4.926   3.511   4.143
  152POPC  H18S17794   4.812   3.408   4.047
  152POPC  H18T17795   4.765   3.571   4.091
  152POPC   C3317796   5.090   3.901   3.074
  152POPC   H3X17797   5.129   4.001   3.107
  152POPC   H3Y17798   5.177   3.830   3.076
  152POPC   C3417799   4.989   3.855   3.180
  152POPC   H4X17800   4.959   3.751   3.158
  152POPC   H4Y17801   4.898   3.919   3.176
  152POPC   C3517802   5.050   3.862   3.322
  152POPC   H5X17803   5.064   3.968   3.352
  152POPC   H5Y17804   5.151   3.816   3.318
  152POPC   C3617805   4.968   3.788   3.428
  152POPC   H6X17806   4.950   3.685   3.391
  152POPC   H6Y17807   4.869   3.837   3.441
  152POPC   C3717808   5.039   3.777   3.565
  152POPC   H7X17809   5.140   3.733   3.550
  152POPC   H7Y17810   4.981   3.706   3.628
  152POPC   C3817811   5.053   3.909   3.642
  152POPC   H8X17812   4.953   3.959   3.642
  152POPC   H8Y17813   5.125   3.976   3.589
  152POPC   C3917814   5.097   3.893   3.789
  152POPC   H9X17815   5.033   3.817   3.837
  152POPC   H9Y17816   5.080   3.989   3.843
  152POPC  C31017817   5.246   3.857   3.804
  152POPC  H10X17818   5.304   3.951   3.795
  152POPC  H10Y17819   5.277   3.793   3.719
  152POPC  C31117820   5.288   3.786   3.935
  152POPC  H11X17821   5.396   3.807   3.951
  152POPC  H11Y17822   5.285   3.676   3.922
  152POPC  C31217823   5.207   3.823   4.060
  152POPC  H12X17824   5.104   3.782   4.056
  152POPC  H12Y17825   5.194   3.934   4.060
  152POPC  C31317826   5.274   3.784   4.193
  152POPC  H13X17827   5.232   3.855   4.268
  152POPC  H13Y17828   5.383   3.802   4.187
  152POPC  C31417829   5.250   3.641   4.243
  152POPC  H14X17830   5.290   3.567   4.169
  152POPC  H14Y17831   5.141   3.623   4.252
  152POPC  C31517832   5.316   3.612   4.380
  152POPC  H15X17833   5.420   3.577   4.364
  152POPC  H15Y17834   5.261   3.529   4.428
  152POPC  C31617835   5.319   3.730   4.479
  152POPC  H16X17836   5.229   3.794   4.467
  152POPC  H16Y17837   5.409   3.792   4.461
  152POPC  H16Z17838   5.321   3.694   4.584
  153POPC     N17839   2.554   3.204   2.189
  153POPC   C1217840   2.511   3.153   2.326
  153POPC  H12A17841   2.559   3.056   2.342
  153POPC  H12B17842   2.405   3.133   2.326
  153POPC   C1317843   2.546   3.355   2.180
  153POPC  H13A17844   2.604   3.395   2.264
  153POPC  H13B17845   2.593   3.390   2.088
  153POPC  H13C17846   2.446   3.393   2.188
  153POPC   C1417847   2.698   3.168   2.171
  153POPC  H14A17848   2.756   3.205   2.258
  153POPC  H14B17849   2.717   3.062   2.174
  153POPC  H14C17850   2.746   3.215   2.088
  153POPC   C1517851   2.474   3.139   2.082
  153POPC  H15A17852   2.370   3.163   2.089
  153POPC  H15B17853   2.489   3.031   2.081
  153POPC  H15C17854   2.507   3.174   1.985
  153POPC   C1117855   2.542   3.235   2.454
  153POPC  H11A17856   2.484   3.193   2.538
  153POPC  H11B17857   2.507   3.340   2.442
  153POPC     P17858   2.771   3.110   2.506
  153POPC   O1317859   2.838   3.108   2.637
  153POPC   O1417860   2.861   3.109   2.388
  153POPC   O1217861   2.680   3.238   2.489
  153POPC   O1117862   2.667   2.988   2.489
  153POPC    C117863   2.712   2.861   2.440
  153POPC    HA17864   2.823   2.853   2.438
  153POPC    HB17865   2.676   2.845   2.337
  153POPC    C217866   2.662   2.739   2.525
  153POPC    HS17867   2.689   2.645   2.471
  153POPC   O2117868   2.523   2.736   2.558
  153POPC   C2117869   2.432   2.802   2.493
  153POPC   O2217870   2.426   2.826   2.373
  153POPC   C2217871   2.324   2.843   2.595
  153POPC   H2R17872   2.299   2.754   2.657
  153POPC   H2S17873   2.234   2.874   2.539
  153POPC    C317874   2.739   2.735   2.659
  153POPC    HX17875   2.844   2.708   2.633
  153POPC    HY17876   2.700   2.654   2.725
  153POPC   O3117877   2.742   2.865   2.721
  153POPC   C3117878   2.695   2.880   2.842
  153POPC   O3217879   2.628   2.797   2.903
  153POPC   C3217880   2.747   3.009   2.907
  153POPC   H2X17881   2.671   3.088   2.895
  153POPC   H2Y17882   2.838   3.043   2.855
  153POPC   C2317883   2.373   2.957   2.689
  153POPC   H3R17884   2.449   3.019   2.637
  153POPC   H3S17885   2.423   2.912   2.777
  153POPC   C2417886   2.262   3.052   2.737
  153POPC   H4R17887   2.188   2.995   2.798
  153POPC   H4S17888   2.206   3.092   2.650
  153POPC   C2517889   2.315   3.171   2.820
  153POPC   H5R17890   2.229   3.236   2.845
  153POPC   H5S17891   2.385   3.230   2.756
  153POPC   C2617892   2.388   3.130   2.950
  153POPC   H6R17893   2.417   3.223   3.004
  153POPC   H6S17894   2.480   3.076   2.924
  153POPC   C2717895   2.305   3.037   3.040
  153POPC   H7R17896   2.302   2.937   2.993
  153POPC   H7S17897   2.201   3.078   3.039
  153POPC   C2817898   2.345   3.022   3.190
  153POPC   H8R17899   2.263   2.961   3.228
  153POPC   H8S17900   2.335   3.123   3.235
  153POPC   C2917901   2.477   2.963   3.235
  153POPC   H9117902   2.558   3.015   3.184
  153POPC  C21017903   2.519   2.862   3.316
  153POPC  H10117904   2.628   2.849   3.325
  153POPC  C21117905   2.449   2.758   3.401
  153POPC  H11R17906   2.492   2.660   3.370
  153POPC  H11S17907   2.342   2.746   3.372
  153POPC  C21217908   2.459   2.758   3.558
  153POPC  H12R17909   2.484   2.655   3.589
  153POPC  H12S17910   2.358   2.777   3.598
  153POPC  C21317911   2.558   2.856   3.627
  153POPC  H13R17912   2.546   2.955   3.578
  153POPC  H13S17913   2.662   2.823   3.611
  153POPC  C21417914   2.532   2.879   3.780
  153POPC  H14R17915   2.423   2.881   3.797
  153POPC  H14S17916   2.574   2.976   3.811
  153POPC  C21517917   2.593   2.774   3.875
  153POPC  H15R17918   2.694   2.750   3.838
  153POPC  H15S17919   2.524   2.691   3.859
  153POPC  C21617920   2.599   2.803   4.027
  153POPC  H16R17921   2.499   2.835   4.063
  153POPC  H16S17922   2.668   2.888   4.039
  153POPC  C21717923   2.657   2.693   4.120
  153POPC  H17R17924   2.618   2.593   4.098
  153POPC  H17S17925   2.627   2.715   4.225
  153POPC  C21817926   2.810   2.685   4.121
  153POPC  H18R17927   2.847   2.676   4.017
  153POPC  H18S17928   2.847   2.598   4.179
  153POPC  H18T17929   2.851   2.777   4.167
  153POPC   C3317930   2.781   2.984   3.055
  153POPC   H3X17931   2.878   2.928   3.060
  153POPC   H3Y17932   2.706   2.916   3.101
  153POPC   C3417933   2.797   3.108   3.144
  153POPC   H4X17934   2.898   3.152   3.124
  153POPC   H4Y17935   2.797   3.073   3.250
  153POPC   C3517936   2.695   3.223   3.130
  153POPC   H5X17937   2.590   3.192   3.125
  153POPC   H5Y17938   2.717   3.274   3.033
  153POPC   C3617939   2.716   3.326   3.241
  153POPC   H6X17940   2.674   3.424   3.212
  153POPC   H6Y17941   2.826   3.333   3.239
  153POPC   C3717942   2.675   3.294   3.386
  153POPC   H7X17943   2.718   3.196   3.417
  153POPC   H7Y17944   2.564   3.285   3.394
  153POPC   C3817945   2.724   3.405   3.482
  153POPC   H8X17946   2.677   3.501   3.452
  153POPC   H8Y17947   2.834   3.417   3.473
  153POPC   C3917948   2.699   3.382   3.631
  153POPC   H9X17949   2.593   3.351   3.645
  153POPC   H9Y17950   2.714   3.477   3.687
  153POPC  C31017951   2.793   3.277   3.693
  153POPC  H10X17952   2.886   3.325   3.730
  153POPC  H10Y17953   2.823   3.203   3.615
  153POPC  C31117954   2.723   3.202   3.805
  153POPC  H11X17955   2.790   3.123   3.844
  153POPC  H11Y17956   2.634   3.154   3.759
  153POPC  C31217957   2.672   3.292   3.919
  153POPC  H12X17958   2.596   3.362   3.879
  153POPC  H12Y17959   2.757   3.352   3.958
  153POPC  C31317960   2.607   3.211   4.032
  153POPC  H13X17961   2.528   3.145   3.989
  153POPC  H13Y17962   2.555   3.281   4.102
  153POPC  C31417963   2.706   3.124   4.110
  153POPC  H14X17964   2.758   3.056   4.039
  153POPC  H14Y17965   2.650   3.063   4.185
  153POPC  C31517966   2.821   3.197   4.179
  153POPC  H15X17967   2.909   3.204   4.112
  153POPC  H15Y17968   2.851   3.135   4.266
  153POPC  C31617969   2.788   3.334   4.231
  153POPC  H16X17970   2.863   3.359   4.309
  153POPC  H16Y17971   2.687   3.337   4.276
  153POPC  H16Z17972   2.793   3.412   4.152
  154POPC     N17973   4.627   2.887   2.320
  154POPC   C1217974   4.707   2.998   2.386
  154POPC  H12A17975   4.652   3.040   2.469
  154POPC  H12B17976   4.722   3.076   2.312
  154POPC   C1317977   4.693   2.839   2.194
  154POPC  H13A17978   4.637   2.760   2.144
  154POPC  H13B17979   4.706   2.919   2.123
  154POPC  H13C17980   4.792   2.800   2.219
  154POPC   C1417981   4.615   2.768   2.411
  154POPC  H14A17982   4.716   2.737   2.439
  154POPC  H14B17983   4.558   2.791   2.499
  154POPC  H14C17984   4.567   2.684   2.362
  154POPC   C1517985   4.490   2.936   2.289
  154POPC  H15A17986   4.434   2.963   2.377
  154POPC  H15B17987   4.434   2.858   2.237
  154POPC  H15C17988   4.492   3.022   2.224
  154POPC   C1117989   4.847   2.962   2.438
  154POPC  H11A17990   4.837   2.887   2.521
  154POPC  H11B17991   4.899   3.051   2.480
  154POPC     P17992   5.056   2.832   2.362
  154POPC   O1317993   5.162   2.887   2.275
  154POPC   O1417994   5.023   2.688   2.344
  154POPC   O1217995   4.924   2.912   2.329
  154POPC   O1117996   5.081   2.866   2.514
  154POPC    C117997   5.162   2.787   2.599
  154POPC    HA17998   5.202   2.854   2.678
  154POPC    HB17999   5.250   2.743   2.545
  154POPC    C218000   5.084   2.677   2.675
  154POPC    HS18001   5.088   2.584   2.614
  154POPC   O2118002   4.946   2.719   2.691
  154POPC   C2118003   4.869   2.635   2.755
  154POPC   O2218004   4.897   2.519   2.782
  154POPC   C2218005   4.735   2.702   2.786
  154POPC   H2R18006   4.664   2.666   2.709
  154POPC   H2S18007   4.747   2.812   2.776
  154POPC    C318008   5.153   2.651   2.813
  154POPC    HX18009   5.263   2.647   2.797
  154POPC    HY18010   5.120   2.552   2.854
  154POPC   O3118011   5.117   2.758   2.903
  154POPC   C3118012   5.160   2.744   3.027
  154POPC   O3218013   5.236   2.658   3.067
  154POPC   C3218014   5.098   2.855   3.113
  154POPC   H2X18015   5.015   2.809   3.171
  154POPC   H2Y18016   5.055   2.934   3.048
  154POPC   C2318017   4.683   2.666   2.927
  154POPC   H3R18018   4.687   2.556   2.941
  154POPC   H3S18019   4.576   2.695   2.935
  154POPC   C2418020   4.760   2.735   3.041
  154POPC   H4R18021   4.753   2.845   3.033
  154POPC   H4S18022   4.867   2.705   3.035
  154POPC   C2518023   4.704   2.688   3.177
  154POPC   H5R18024   4.706   2.578   3.172
  154POPC   H5S18025   4.598   2.722   3.186
  154POPC   C2618026   4.782   2.725   3.303
  154POPC   H6R18027   4.709   2.726   3.388
  154POPC   H6S18028   4.824   2.827   3.296
  154POPC   C2718029   4.890   2.622   3.337
  154POPC   H7R18030   4.966   2.623   3.256
  154POPC   H7S18031   4.845   2.520   3.336
  154POPC   C2818032   4.955   2.644   3.474
  154POPC   H8R18033   4.884   2.609   3.552
  154POPC   H8S18034   4.970   2.753   3.491
  154POPC   C2918035   5.086   2.571   3.485
  154POPC   H9118036   5.122   2.523   3.393
  154POPC  C21018037   5.165   2.568   3.594
  154POPC  H10118038   5.262   2.517   3.588
  154POPC  C21118039   5.136   2.640   3.724
  154POPC  H11R18040   5.143   2.571   3.811
  154POPC  H11S18041   5.034   2.683   3.724
  154POPC  C21218042   5.236   2.756   3.740
  154POPC  H12R18043   5.247   2.804   3.639
  154POPC  H12S18044   5.336   2.720   3.772
  154POPC  C21318045   5.185   2.868   3.830
  154POPC  H13R18046   5.079   2.886   3.803
  154POPC  H13S18047   5.241   2.961   3.807
  154POPC  C21418048   5.195   2.845   3.982
  154POPC  H14R18049   5.263   2.760   4.006
  154POPC  H14S18050   5.095   2.819   4.020
  154POPC  C21518051   5.232   2.969   4.064
  154POPC  H15R18052   5.341   2.989   4.053
  154POPC  H15S18053   5.215   2.944   4.171
  154POPC  C21618054   5.152   3.098   4.031
  154POPC  H16R18055   5.219   3.162   3.969
  154POPC  H16S18056   5.135   3.152   4.127
  154POPC  C21718057   5.018   3.082   3.956
  154POPC  H17R18058   4.973   2.984   3.982
  154POPC  H17S18059   5.037   3.082   3.847
  154POPC  C21818060   4.911   3.187   3.982
  154POPC  H18R18061   4.810   3.141   3.985
  154POPC  H18S18062   4.908   3.264   3.902
  154POPC  H18T18063   4.930   3.237   4.080
  154POPC   C3318064   5.202   2.913   3.210
  154POPC   H3X18065   5.265   2.988   3.156
  154POPC   H3Y18066   5.270   2.830   3.240
  154POPC   C3418067   5.148   2.971   3.341
  154POPC   H4X18068   5.231   3.027   3.390
  154POPC   H4Y18069   5.122   2.887   3.409
  154POPC   C3518070   5.026   3.064   3.332
  154POPC   H5X18071   4.937   3.004   3.306
  154POPC   H5Y18072   5.041   3.139   3.252
  154POPC   C3618073   5.006   3.134   3.467
  154POPC   H6X18074   5.083   3.213   3.475
  154POPC   H6Y18075   5.028   3.061   3.549
  154POPC   C3718076   4.867   3.196   3.492
  154POPC   H7X18077   4.841   3.261   3.405
  154POPC   H7Y18078   4.874   3.262   3.582
  154POPC   C3818079   4.756   3.093   3.517
  154POPC   H8X18080   4.750   3.025   3.429
  154POPC   H8Y18081   4.658   3.147   3.522
  154POPC   C3918082   4.773   3.011   3.646
  154POPC   H9X18083   4.760   3.079   3.734
  154POPC   H9Y18084   4.875   2.967   3.651
  154POPC  C31018085   4.672   2.896   3.655
  154POPC  H10X18086   4.690   2.823   3.574
  154POPC  H10Y18087   4.572   2.940   3.641
  154POPC  C31118088   4.662   2.823   3.790
  154POPC  H11X18089   4.574   2.755   3.786
  154POPC  H11Y18090   4.643   2.898   3.870
  154POPC  C31218091   4.785   2.738   3.826
  154POPC  H12X18092   4.874   2.805   3.828
  154POPC  H12Y18093   4.801   2.661   3.748
  154POPC  C31318094   4.768   2.673   3.963
  154POPC  H13X18095   4.683   2.601   3.963
  154POPC  H13Y18096   4.739   2.753   4.034
  154POPC  C31418097   4.894   2.606   4.020
  154POPC  H14X18098   4.972   2.683   4.021
  154POPC  H14Y18099   4.933   2.526   3.955
  154POPC  C31518100   4.873   2.562   4.164
  154POPC  H15X18101   4.797   2.482   4.169
  154POPC  H15Y18102   4.831   2.651   4.215
  154POPC  C31618103   4.995   2.515   4.243
  154POPC  H16X18104   5.086   2.572   4.215
  154POPC  H16Y18105   5.012   2.407   4.229
  154POPC  H16Z18106   4.976   2.528   4.351
  155POPC     N18107   3.328   2.371   2.309
  155POPC   C1218108   3.350   2.480   2.413
  155POPC  H12A18109   3.422   2.549   2.372
  155POPC  H12B18110   3.392   2.438   2.503
  155POPC   C1318111   3.204   2.295   2.345
  155POPC  H13A18112   3.214   2.249   2.444
  155POPC  H13B18113   3.121   2.366   2.351
  155POPC  H13C18114   3.181   2.220   2.271
  155POPC   C1418115   3.313   2.435   2.174
  155POPC  H14A18116   3.227   2.503   2.176
  155POPC  H14B18117   3.400   2.495   2.149
  155POPC  H14C18118   3.301   2.362   2.096
  155POPC   C1518119   3.445   2.283   2.300
  155POPC  H15A18120   3.442   2.223   2.211
  155POPC  H15B18121   3.454   2.226   2.391
  155POPC  H15C18122   3.539   2.341   2.297
  155POPC   C1118123   3.225   2.563   2.450
  155POPC  H11A18124   3.256   2.646   2.516
  155POPC  H11B18125   3.150   2.502   2.505
  155POPC     P18126   3.027   2.667   2.305
  155POPC   O1318127   2.945   2.637   2.424
  155POPC   O1418128   2.980   2.613   2.174
  155POPC   O1218129   3.172   2.614   2.329
  155POPC   O1118130   3.054   2.822   2.292
  155POPC    C118131   3.186   2.869   2.264
  155POPC    HA18132   3.176   2.953   2.191
  155POPC    HB18133   3.251   2.795   2.212
  155POPC    C218134   3.263   2.925   2.388
  155POPC    HS18135   3.303   3.024   2.354
  155POPC   O2118136   3.371   2.836   2.427
  155POPC   C2118137   3.457   2.896   2.506
  155POPC   O2218138   3.469   3.017   2.518
  155POPC   C2218139   3.538   2.796   2.587
  155POPC   H2R18140   3.637   2.843   2.607
  155POPC   H2S18141   3.553   2.702   2.530
  155POPC    C318142   3.168   2.952   2.510
  155POPC    HX18143   3.072   2.992   2.470
  155POPC    HY18144   3.216   3.034   2.566
  155POPC   O3118145   3.139   2.838   2.594
  155POPC   C3118146   3.139   2.863   2.724
  155POPC   O3218147   3.201   2.951   2.780
  155POPC   C3218148   3.050   2.766   2.797
  155POPC   H2X18149   3.056   2.665   2.753
  155POPC   H2Y18150   2.948   2.806   2.786
  155POPC   C2318151   3.465   2.770   2.720
  155POPC   H3R18152   3.366   2.722   2.701
  155POPC   H3S18153   3.445   2.869   2.768
  155POPC   C2418154   3.540   2.685   2.822
  155POPC   H4R18155   3.645   2.720   2.832
  155POPC   H4S18156   3.541   2.578   2.789
  155POPC   C2518157   3.470   2.697   2.958
  155POPC   H5R18158   3.367   2.654   2.949
  155POPC   H5S18159   3.460   2.804   2.985
  155POPC   C2618160   3.542   2.623   3.069
  155POPC   H6R18161   3.650   2.648   3.069
  155POPC   H6S18162   3.533   2.513   3.050
  155POPC   C2718163   3.483   2.654   3.207
  155POPC   H7R18164   3.373   2.633   3.204
  155POPC   H7S18165   3.495   2.761   3.234
  155POPC   C2818166   3.545   2.563   3.313
  155POPC   H8R18167   3.564   2.469   3.258
  155POPC   H8S18168   3.469   2.541   3.391
  155POPC   C2918169   3.676   2.612   3.368
  155POPC   H9118170   3.739   2.668   3.297
  155POPC  C21018171   3.721   2.593   3.494
  155POPC  H10118172   3.815   2.640   3.525
  155POPC  C21118173   3.647   2.518   3.602
  155POPC  H11R18174   3.702   2.426   3.631
  155POPC  H11S18175   3.546   2.488   3.570
  155POPC  C21218176   3.626   2.604   3.727
  155POPC  H12R18177   3.722   2.620   3.779
  155POPC  H12S18178   3.558   2.548   3.795
  155POPC  C21318179   3.561   2.740   3.695
  155POPC  H13R18180   3.484   2.726   3.615
  155POPC  H13S18181   3.638   2.810   3.657
  155POPC  C21418182   3.493   2.800   3.818
  155POPC  H14R18183   3.401   2.741   3.839
  155POPC  H14S18184   3.463   2.905   3.797
  155POPC  C21518185   3.582   2.802   3.941
  155POPC  H15R18186   3.672   2.864   3.921
  155POPC  H15S18187   3.617   2.699   3.963
  155POPC  C21618188   3.511   2.854   4.066
  155POPC  H16R18189   3.405   2.824   4.059
  155POPC  H16S18190   3.513   2.965   4.067
  155POPC  C21718191   3.573   2.794   4.192
  155POPC  H17R18192   3.682   2.815   4.192
  155POPC  H17S18193   3.561   2.683   4.186
  155POPC  C21818194   3.512   2.841   4.324
  155POPC  H18R18195   3.533   2.949   4.342
  155POPC  H18S18196   3.556   2.782   4.407
  155POPC  H18T18197   3.402   2.826   4.325
  155POPC   C3318198   3.080   2.770   2.947
  155POPC   H3X18199   3.068   2.874   2.987
  155POPC   H3Y18200   3.185   2.741   2.966
  155POPC   C3418201   2.987   2.675   3.021
  155POPC   H4X18202   3.001   2.576   2.974
  155POPC   H4Y18203   2.881   2.704   3.010
  155POPC   C3518204   3.028   2.667   3.167
  155POPC   H5X18205   3.121   2.728   3.182
  155POPC   H5Y18206   3.054   2.561   3.190
  155POPC   C3618207   2.924   2.715   3.268
  155POPC   H6X18208   2.823   2.678   3.239
  155POPC   H6Y18209   2.920   2.827   3.268
  155POPC   C3718210   2.959   2.662   3.407
  155POPC   H7X18211   2.935   2.554   3.410
  155POPC   H7Y18212   2.895   2.713   3.483
  155POPC   C3818213   3.109   2.674   3.442
  155POPC   H8X18214   3.137   2.781   3.448
  155POPC   H8Y18215   3.173   2.629   3.363
  155POPC   C3918216   3.145   2.598   3.570
  155POPC   H9X18217   3.253   2.616   3.592
  155POPC   H9Y18218   3.131   2.489   3.552
  155POPC  C31018219   3.061   2.641   3.691
  155POPC  H10X18220   3.099   2.586   3.780
  155POPC  H10Y18221   2.956   2.610   3.676
  155POPC  C31118222   3.066   2.792   3.713
  155POPC  H11X18223   3.032   2.844   3.621
  155POPC  H11Y18224   3.171   2.823   3.733
  155POPC  C31218225   2.975   2.841   3.826
  155POPC  H12X18226   2.894   2.767   3.837
  155POPC  H12Y18227   2.928   2.938   3.796
  155POPC  C31318228   3.046   2.862   3.960
  155POPC  H13X18229   2.971   2.889   4.036
  155POPC  H13Y18230   3.117   2.946   3.953
  155POPC  C31418231   3.125   2.738   4.002
  155POPC  H14X18232   3.216   2.728   3.938
  155POPC  H14Y18233   3.063   2.647   3.985
  155POPC  C31518234   3.167   2.738   4.148
  155POPC  H15X18235   3.077   2.751   4.213
  155POPC  H15Y18236   3.234   2.824   4.169
  155POPC  C31618237   3.235   2.606   4.183
  155POPC  H16X18238   3.276   2.610   4.285
  155POPC  H16Y18239   3.319   2.585   4.113
  155POPC  H16Z18240   3.162   2.522   4.176
  156POPC     N18241   3.341   5.367   2.413
  156POPC   C1218242   3.337   5.403   2.265
  156POPC  H12A18243   3.239   5.441   2.239
  156POPC  H12B18244   3.356   5.315   2.206
  156POPC   C1318245   3.360   5.493   2.492
  156POPC  H13A18246   3.375   5.474   2.597
  156POPC  H13B18247   3.450   5.544   2.456
  156POPC  H13C18248   3.276   5.561   2.478
  156POPC   C1418249   3.215   5.300   2.454
  156POPC  H14A18250   3.206   5.203   2.407
  156POPC  H14B18251   3.211   5.289   2.561
  156POPC  H14C18252   3.129   5.360   2.422
  156POPC   C1518253   3.458   5.276   2.437
  156POPC  H15A18254   3.450   5.185   2.381
  156POPC  H15B18255   3.473   5.256   2.542
  156POPC  H15C18256   3.548   5.329   2.401
  156POPC   C1118257   3.443   5.507   2.220
  156POPC  H11A18258   3.414   5.609   2.256
  156POPC  H11B18259   3.442   5.510   2.109
  156POPC     P18260   3.692   5.567   2.275
  156POPC   O1318261   3.644   5.703   2.243
  156POPC   O1418262   3.802   5.510   2.194
  156POPC   O1218263   3.571   5.467   2.268
  156POPC   O1118264   3.733   5.573   2.427
  156POPC    C118265   3.861   5.631   2.460
  156POPC    HA18266   3.887   5.719   2.397
  156POPC    HB18267   3.939   5.553   2.444
  156POPC    C218268   3.871   5.672   2.612
  156POPC    HS18269   3.972   5.643   2.647
  156POPC   O2118270   3.772   5.610   2.695
  156POPC   C2118271   3.772   5.479   2.697
  156POPC   O2218272   3.848   5.406   2.635
  156POPC   C2218273   3.684   5.437   2.815
  156POPC   H2R18274   3.726   5.490   2.904
  156POPC   H2S18275   3.697   5.329   2.831
  156POPC    C318276   3.860   5.824   2.638
  156POPC    HX18277   3.756   5.858   2.618
  156POPC    HY18278   3.925   5.876   2.564
  156POPC   O3118279   3.908   5.855   2.772
  156POPC   C3118280   3.812   5.853   2.866
  156POPC   O3218281   3.694   5.837   2.846
  156POPC   C3218282   3.870   5.894   3.003
  156POPC   H2X18283   3.787   5.940   3.060
  156POPC   H2Y18284   3.946   5.973   2.983
  156POPC   C2318285   3.532   5.461   2.810
  156POPC   H3R18286   3.488   5.393   2.734
  156POPC   H3S18287   3.509   5.566   2.781
  156POPC   C2418288   3.473   5.428   2.948
  156POPC   H4R18289   3.522   5.335   2.987
  156POPC   H4S18290   3.366   5.400   2.937
  156POPC   C2518291   3.485   5.538   3.056
  156POPC   H5R18292   3.592   5.549   3.084
  156POPC   H5S18293   3.433   5.503   3.148
  156POPC   C2618294   3.430   5.677   3.015
  156POPC   H6R18295   3.334   5.664   2.962
  156POPC   H6S18296   3.500   5.723   2.942
  156POPC   C2718297   3.403   5.777   3.130
  156POPC   H7R18298   3.333   5.733   3.204
  156POPC   H7S18299   3.353   5.865   3.084
  156POPC   C2818300   3.532   5.822   3.200
  156POPC   H8R18301   3.606   5.833   3.117
  156POPC   H8S18302   3.564   5.734   3.259
  156POPC   C2918303   3.536   5.950   3.280
  156POPC   H9118304   3.508   6.040   3.224
  156POPC  C21018305   3.569   5.964   3.410
  156POPC  H10118306   3.570   6.065   3.455
  156POPC  C21118307   3.610   5.852   3.503
  156POPC  H11R18308   3.644   5.763   3.445
  156POPC  H11S18309   3.519   5.821   3.557
  156POPC  C21218310   3.720   5.876   3.609
  156POPC  H12R18311   3.685   5.952   3.682
  156POPC  H12S18312   3.812   5.912   3.559
  156POPC  C21318313   3.752   5.743   3.682
  156POPC  H13R18314   3.801   5.673   3.612
  156POPC  H13S18315   3.654   5.701   3.710
  156POPC  C21418316   3.831   5.749   3.814
  156POPC  H14R18317   3.773   5.811   3.886
  156POPC  H14S18318   3.930   5.796   3.797
  156POPC  C21518319   3.852   5.611   3.880
  156POPC  H15R18320   3.908   5.543   3.812
  156POPC  H15S18321   3.755   5.563   3.902
  156POPC  C21618322   3.927   5.629   4.014
  156POPC  H16R18323   3.873   5.706   4.074
  156POPC  H16S18324   4.028   5.669   3.990
  156POPC  C21718325   3.941   5.502   4.100
  156POPC  H17R18326   4.016   5.525   4.179
  156POPC  H17S18327   3.982   5.419   4.038
  156POPC  C21818328   3.812   5.457   4.169
  156POPC  H18R18329   3.775   5.538   4.236
  156POPC  H18S18330   3.830   5.367   4.232
  156POPC  H18T18331   3.733   5.433   4.095
  156POPC   C3318332   3.935   5.781   3.088
  156POPC   H3X18333   3.980   5.829   3.178
  156POPC   H3Y18334   4.017   5.735   3.030
  156POPC   C3418335   3.837   5.674   3.140
  156POPC   H4X18336   3.778   5.636   3.054
  156POPC   H4Y18337   3.768   5.723   3.211
  156POPC   C3518338   3.902   5.555   3.214
  156POPC   H5X18339   3.948   5.593   3.308
  156POPC   H5Y18340   3.980   5.511   3.150
  156POPC   C3618341   3.808   5.439   3.249
  156POPC   H6X18342   3.868   5.349   3.275
  156POPC   H6Y18343   3.745   5.415   3.161
  156POPC   C3718344   3.720   5.472   3.369
  156POPC   H7X18345   3.674   5.572   3.350
  156POPC   H7Y18346   3.782   5.482   3.461
  156POPC   C3818347   3.607   5.371   3.390
  156POPC   H8X18348   3.643   5.288   3.456
  156POPC   H8Y18349   3.579   5.327   3.292
  156POPC   C3918350   3.481   5.435   3.448
  156POPC   H9X18351   3.406   5.356   3.471
  156POPC   H9Y18352   3.437   5.503   3.372
  156POPC  C31018353   3.505   5.515   3.576
  156POPC  H10X18354   3.592   5.582   3.560
  156POPC  H10Y18355   3.534   5.442   3.655
  156POPC  C31118356   3.381   5.598   3.613
  156POPC  H11X18357   3.298   5.525   3.620
  156POPC  H11Y18358   3.356   5.668   3.530
  156POPC  C31218359   3.388   5.674   3.748
  156POPC  H12X18360   3.285   5.699   3.781
  156POPC  H12Y18361   3.444   5.770   3.739
  156POPC  C31318362   3.457   5.585   3.851
  156POPC  H13X18363   3.566   5.581   3.833
  156POPC  H13Y18364   3.419   5.482   3.833
  156POPC  C31418365   3.431   5.610   3.999
  156POPC  H14X18366   3.470   5.519   4.049
  156POPC  H14Y18367   3.322   5.614   4.018
  156POPC  C31518368   3.501   5.728   4.066
  156POPC  H15X18369   3.446   5.823   4.046
  156POPC  H15Y18370   3.605   5.741   4.030
  156POPC  C31618371   3.503   5.699   4.216
  156POPC  H16X18372   3.536   5.787   4.276
  156POPC  H16Y18373   3.572   5.614   4.237
  156POPC  H16Z18374   3.402   5.668   4.249
  157POPC     N18375   2.666   5.111   2.414
  157POPC   C1218376   2.603   5.188   2.298
  157POPC  H12A18377   2.495   5.184   2.308
  157POPC  H12B18378   2.630   5.139   2.206
  157POPC   C1318379   2.813   5.131   2.410
  157POPC  H13A18380   2.832   5.237   2.391
  157POPC  H13B18381   2.861   5.104   2.503
  157POPC  H13C18382   2.861   5.076   2.330
  157POPC   C1418383   2.616   5.162   2.546
  157POPC  H14A18384   2.668   5.115   2.629
  157POPC  H14B18385   2.632   5.269   2.557
  157POPC  H14C18386   2.510   5.141   2.565
  157POPC   C1518387   2.636   4.964   2.400
  157POPC  H15A18388   2.530   4.948   2.384
  157POPC  H15B18389   2.668   4.913   2.490
  157POPC  H15C18390   2.689   4.920   2.315
  157POPC   C1118391   2.640   5.338   2.282
  157POPC  H11A18392   2.609   5.389   2.377
  157POPC  H11B18393   2.578   5.383   2.201
  157POPC     P18394   2.851   5.490   2.297
  157POPC   O1318395   2.818   5.598   2.202
  157POPC   O1418396   2.993   5.454   2.320
  157POPC   O1218397   2.779   5.355   2.251
  157POPC   O1118398   2.782   5.519   2.436
  157POPC    C118399   2.726   5.649   2.458
  157POPC    HA18400   2.621   5.653   2.419
  157POPC    HB18401   2.784   5.730   2.408
  157POPC    C218402   2.728   5.680   2.609
  157POPC    HS18403   2.723   5.791   2.624
  157POPC   O2118404   2.846   5.628   2.668
  157POPC   C2118405   2.962   5.670   2.632
  157POPC   O2218406   2.990   5.759   2.555
  157POPC   C2218407   3.063   5.590   2.712
  157POPC   H2R18408   3.161   5.642   2.704
  157POPC   H2S18409   3.070   5.489   2.669
  157POPC    C318410   2.610   5.615   2.683
  157POPC    HX18411   2.565   5.537   2.617
  157POPC    HY18412   2.536   5.695   2.701
  157POPC   O3118413   2.651   5.563   2.811
  157POPC   C3118414   2.621   5.440   2.845
  157POPC   O3218415   2.557   5.361   2.778
  157POPC   C3218416   2.677   5.420   2.987
  157POPC   H2X18417   2.772   5.477   2.995
  157POPC   H2Y18418   2.698   5.313   3.004
  157POPC   C2318419   3.020   5.582   2.860
  157POPC   H3R18420   2.918   5.538   2.870
  157POPC   H3S18421   3.016   5.684   2.904
  157POPC   C2418422   3.117   5.494   2.936
  157POPC   H4R18423   3.215   5.519   2.891
  157POPC   H4S18424   3.098   5.386   2.917
  157POPC   C2518425   3.123   5.524   3.086
  157POPC   H5R18426   3.101   5.630   3.108
  157POPC   H5S18427   3.227   5.504   3.121
  157POPC   C2618428   3.034   5.432   3.168
  157POPC   H6R18429   3.037   5.330   3.123
  157POPC   H6S18430   2.929   5.467   3.163
  157POPC   C2718431   3.082   5.424   3.313
  157POPC   H7R18432   3.082   5.526   3.357
  157POPC   H7S18433   3.187   5.386   3.318
  157POPC   C2818434   2.990   5.334   3.395
  157POPC   H8R18435   2.888   5.376   3.379
  157POPC   H8S18436   3.011   5.343   3.503
  157POPC   C2918437   3.006   5.192   3.347
  157POPC   H9118438   3.107   5.152   3.359
  157POPC  C21018439   2.912   5.115   3.289
  157POPC  H10118440   2.935   5.013   3.255
  157POPC  C21118441   2.773   5.165   3.264
  157POPC  H11R18442   2.729   5.119   3.173
  157POPC  H11S18443   2.780   5.272   3.238
  157POPC  C21218444   2.683   5.141   3.387
  157POPC  H12R18445   2.675   5.032   3.409
  157POPC  H12S18446   2.582   5.178   3.363
  157POPC  C21318447   2.725   5.210   3.517
  157POPC  H13R18448   2.742   5.316   3.496
  157POPC  H13S18449   2.820   5.170   3.558
  157POPC  C21418450   2.614   5.198   3.619
  157POPC  H14R18451   2.607   5.093   3.649
  157POPC  H14S18452   2.516   5.221   3.571
  157POPC  C21518453   2.630   5.288   3.742
  157POPC  H15R18454   2.643   5.390   3.706
  157POPC  H15S18455   2.722   5.263   3.798
  157POPC  C21618456   2.507   5.271   3.831
  157POPC  H16R18457   2.515   5.165   3.862
  157POPC  H16S18458   2.412   5.284   3.774
  157POPC  C21718459   2.495   5.341   3.965
  157POPC  H17R18460   2.458   5.445   3.953
  157POPC  H17S18461   2.594   5.344   4.016
  157POPC  C21818462   2.395   5.263   4.051
  157POPC  H18R18463   2.366   5.320   4.141
  157POPC  H18S18464   2.439   5.166   4.083
  157POPC  H18T18465   2.303   5.239   3.994
  157POPC   C3318466   2.579   5.478   3.091
  157POPC   H3X18467   2.489   5.413   3.087
  157POPC   H3Y18468   2.552   5.582   3.063
  157POPC   C3418469   2.627   5.477   3.236
  157POPC   H4X18470   2.732   5.511   3.247
  157POPC   H4Y18471   2.619   5.371   3.268
  157POPC   C3518472   2.537   5.551   3.336
  157POPC   H5X18473   2.433   5.546   3.299
  157POPC   H5Y18474   2.568   5.657   3.344
  157POPC   C3618475   2.533   5.479   3.471
  157POPC   H6X18476   2.637   5.471   3.505
  157POPC   H6Y18477   2.496   5.377   3.447
  157POPC   C3718478   2.444   5.535   3.583
  157POPC   H7X18479   2.389   5.449   3.628
  157POPC   H7Y18480   2.365   5.599   3.538
  157POPC   C3818481   2.517   5.605   3.699
  157POPC   H8X18482   2.532   5.534   3.783
  157POPC   H8Y18483   2.452   5.682   3.745
  157POPC   C3918484   2.657   5.659   3.666
  157POPC   H9X18485   2.655   5.723   3.577
  157POPC   H9Y18486   2.727   5.576   3.643
  157POPC  C31018487   2.721   5.734   3.782
  157POPC  H10X18488   2.649   5.731   3.866
  157POPC  H10Y18489   2.736   5.839   3.749
  157POPC  C31118490   2.856   5.678   3.825
  157POPC  H11X18491   2.912   5.755   3.882
  157POPC  H11Y18492   2.916   5.656   3.734
  157POPC  C31218493   2.841   5.550   3.909
  157POPC  H12X18494   2.936   5.494   3.904
  157POPC  H12Y18495   2.763   5.485   3.863
  157POPC  C31318496   2.806   5.572   4.057
  157POPC  H13X18497   2.804   5.473   4.107
  157POPC  H13Y18498   2.703   5.612   4.063
  157POPC  C31418499   2.900   5.667   4.134
  157POPC  H14X18500   2.884   5.653   4.243
  157POPC  H14Y18501   2.869   5.771   4.110
  157POPC  C31518502   3.051   5.656   4.103
  157POPC  H15X18503   3.066   5.630   3.996
  157POPC  H15Y18504   3.096   5.575   4.163
  157POPC  C31618505   3.130   5.785   4.128
  157POPC  H16X18506   3.063   5.872   4.136
  157POPC  H16Y18507   3.200   5.801   4.044
  157POPC  H16Z18508   3.191   5.778   4.221
  158POPC     N18509   5.785   4.940   2.374
  158POPC   C1218510   5.816   5.080   2.424
  158POPC  H12A18511   5.856   5.140   2.342
  158POPC  H12B18512   5.891   5.075   2.500
  158POPC   C1318513   5.676   4.944   2.271
  158POPC  H13A18514   5.643   4.847   2.240
  158POPC  H13B18515   5.597   5.010   2.307
  158POPC  H13C18516   5.711   4.997   2.181
  158POPC   C1418517   5.906   4.891   2.307
  158POPC  H14A18518   5.995   4.893   2.371
  158POPC  H14B18519   5.897   4.786   2.279
  158POPC  H14C18520   5.929   4.948   2.218
  158POPC   C1518521   5.749   4.852   2.488
  158POPC  H15A18522   5.835   4.833   2.550
  158POPC  H15B18523   5.714   4.754   2.456
  158POPC  H15C18524   5.671   4.897   2.548
  158POPC   C1118525   5.698   5.163   2.474
  158POPC  H11A18526   5.740   5.251   2.526
  158POPC  H11B18527   5.636   5.108   2.548
  158POPC     P18528   5.664   5.323   2.271
  158POPC   O1318529   5.560   5.336   2.167
  158POPC   O1418530   5.806   5.305   2.231
  158POPC   O1218531   5.619   5.200   2.362
  158POPC   O1118532   5.653   5.443   2.370
  158POPC    C118533   5.534   5.448   2.445
  158POPC    HA18534   5.474   5.354   2.448
  158POPC    HB18535   5.467   5.525   2.400
  158POPC    C218536   5.564   5.485   2.590
  158POPC    HS18537   5.571   5.594   2.588
  158POPC   O2118538   5.682   5.427   2.651
  158POPC   C2118539   5.793   5.497   2.643
  158POPC   O2218540   5.808   5.600   2.581
  158POPC   C2218541   5.904   5.431   2.728
  158POPC   H2R18542   5.984   5.509   2.734
  158POPC   H2S18543   5.945   5.345   2.673
  158POPC    C318544   5.441   5.444   2.673
  158POPC    HX18545   5.349   5.458   2.613
  158POPC    HY18546   5.440   5.521   2.753
  158POPC   O3118547   5.452   5.306   2.716
  158POPC   C3118548   5.420   5.296   2.844
  158POPC   O3218549   5.367   5.382   2.910
  158POPC   C3218550   5.452   5.160   2.898
  158POPC   H2X18551   5.551   5.125   2.865
  158POPC   H2Y18552   5.377   5.089   2.858
  158POPC   C2318553   5.864   5.393   2.873
  158POPC   H3R18554   5.801   5.473   2.918
  158POPC   H3S18555   5.956   5.385   2.936
  158POPC   C2418556   5.794   5.258   2.883
  158POPC   H4R18557   5.850   5.181   2.827
  158POPC   H4S18558   5.696   5.270   2.832
  158POPC   C2518559   5.769   5.211   3.027
  158POPC   H5R18560   5.697   5.126   3.024
  158POPC   H5S18561   5.724   5.293   3.087
  158POPC   C2618562   5.891   5.155   3.099
  158POPC   H6R18563   5.969   5.233   3.112
  158POPC   H6S18564   5.934   5.074   3.035
  158POPC   C2718565   5.857   5.090   3.234
  158POPC   H7R18566   5.948   5.037   3.265
  158POPC   H7S18567   5.781   5.011   3.222
  158POPC   C2818568   5.824   5.188   3.348
  158POPC   H8R18569   5.732   5.245   3.322
  158POPC   H8S18570   5.908   5.260   3.354
  158POPC   C2918571   5.806   5.119   3.482
  158POPC   H9118572   5.801   5.009   3.481
  158POPC  C21018573   5.795   5.184   3.599
  158POPC  H10118574   5.779   5.128   3.693
  158POPC  C21118575   5.800   5.335   3.611
  158POPC  H11R18576   5.836   5.379   3.516
  158POPC  H11S18577   5.875   5.367   3.686
  158POPC  C21218578   5.662   5.399   3.635
  158POPC  H12R18579   5.580   5.328   3.613
  158POPC  H12S18580   5.651   5.482   3.562
  158POPC  C21318581   5.643   5.458   3.775
  158POPC  H13R18582   5.534   5.471   3.795
  158POPC  H13S18583   5.686   5.560   3.769
  158POPC  C21418584   5.708   5.380   3.891
  158POPC  H14R18585   5.818   5.378   3.880
  158POPC  H14S18586   5.671   5.275   3.891
  158POPC  C21518587   5.682   5.443   4.029
  158POPC  H15R18588   5.734   5.385   4.108
  158POPC  H15S18589   5.573   5.437   4.050
  158POPC  C21618590   5.727   5.589   4.030
  158POPC  H16R18591   5.636   5.649   4.037
  158POPC  H16S18592   5.771   5.618   3.934
  158POPC  C21718593   5.828   5.632   4.136
  158POPC  H17R18594   5.927   5.590   4.105
  158POPC  H17S18595   5.801   5.591   4.235
  158POPC  C21818596   5.842   5.782   4.153
  158POPC  H18R18597   5.800   5.835   4.066
  158POPC  H18S18598   5.947   5.813   4.169
  158POPC  H18T18599   5.786   5.817   4.240
  158POPC   C3318600   5.440   5.160   3.051
  158POPC   H3X18601   5.347   5.208   3.087
  158POPC   H3Y18602   5.521   5.222   3.096
  158POPC   C3418603   5.448   5.016   3.101
  158POPC   H4X18604   5.517   4.959   3.036
  158POPC   H4Y18605   5.348   4.969   3.095
  158POPC   C3518606   5.502   5.013   3.243
  158POPC   H5X18607   5.595   5.073   3.246
  158POPC   H5Y18608   5.525   4.909   3.274
  158POPC   C3618609   5.405   5.079   3.338
  158POPC   H6X18610   5.311   5.020   3.344
  158POPC   H6Y18611   5.380   5.181   3.302
  158POPC   C3718612   5.465   5.097   3.476
  158POPC   H7X18613   5.551   5.167   3.468
  158POPC   H7Y18614   5.502   5.000   3.515
  158POPC   C3818615   5.359   5.158   3.566
  158POPC   H8X18616   5.264   5.104   3.549
  158POPC   H8Y18617   5.344   5.265   3.539
  158POPC   C3918618   5.391   5.144   3.713
  158POPC   H9X18619   5.320   5.212   3.767
  158POPC   H9Y18620   5.495   5.178   3.735
  158POPC  C31018621   5.372   5.000   3.762
  158POPC  H10X18622   5.463   4.943   3.734
  158POPC  H10Y18623   5.285   4.953   3.710
  158POPC  C31118624   5.351   4.992   3.913
  158POPC  H11X18625   5.380   4.891   3.949
  158POPC  H11Y18626   5.243   5.007   3.937
  158POPC  C31218627   5.433   5.099   3.985
  158POPC  H12X18628   5.402   5.202   3.956
  158POPC  H12Y18629   5.539   5.086   3.954
  158POPC  C31318630   5.421   5.093   4.136
  158POPC  H13X18631   5.441   4.989   4.169
  158POPC  H13Y18632   5.318   5.122   4.165
  158POPC  C31418633   5.521   5.188   4.199
  158POPC  H14X18634   5.479   5.291   4.209
  158POPC  H14Y18635   5.610   5.195   4.132
  158POPC  C31518636   5.571   5.137   4.333
  158POPC  H15X18637   5.602   5.031   4.318
  158POPC  H15Y18638   5.489   5.138   4.408
  158POPC  C31618639   5.691   5.216   4.383
  158POPC  H16X18640   5.665   5.324   4.395
  158POPC  H16Y18641   5.775   5.209   4.309
  158POPC  H16Z18642   5.728   5.177   4.480
  159POPC     N18643   3.190   5.988   2.219
  159POPC   C1218644   3.129   6.128   2.207
  159POPC  H12A18645   3.119   6.152   2.101
  159POPC  H12B18646   3.200   6.198   2.252
  159POPC   C1318647   3.096   5.881   2.169
  159POPC  H13A18648   3.140   5.782   2.167
  159POPC  H13B18649   3.010   5.877   2.236
  159POPC  H13C18650   3.051   5.904   2.073
  159POPC   C1418651   3.325   5.986   2.153
  159POPC  H14A18652   3.376   5.892   2.168
  159POPC  H14B18653   3.320   6.007   2.047
  159POPC  H14C18654   3.387   6.068   2.192
  159POPC   C1518655   3.208   5.960   2.363
  159POPC  H15A18656   3.245   5.860   2.380
  159POPC  H15B18657   3.112   5.971   2.414
  159POPC  H15C18658   3.275   6.034   2.406
  159POPC   C1118659   2.991   6.161   2.272
  159POPC  H11A18660   2.912   6.095   2.229
  159POPC  H11B18661   2.967   6.266   2.241
  159POPC     P18662   2.854   6.197   2.491
  159POPC   O1318663   2.801   6.078   2.561
  159POPC   O1418664   2.766   6.269   2.395
  159POPC   O1218665   2.989   6.151   2.415
  159POPC   O1118666   2.903   6.299   2.601
  159POPC    C118667   2.979   6.416   2.575
  159POPC    HA18668   2.913   6.506   2.581
  159POPC    HB18669   3.022   6.414   2.471
  159POPC    C218670   3.099   6.433   2.674
  159POPC    HS18671   3.173   6.500   2.624
  159POPC   O2118672   3.160   6.309   2.712
  159POPC   C2118673   3.218   6.241   2.617
  159POPC   O2218674   3.245   6.283   2.505
  159POPC   C2218675   3.265   6.106   2.673
  159POPC   H2R18676   3.373   6.114   2.695
  159POPC   H2S18677   3.253   6.031   2.594
  159POPC    C318678   3.061   6.501   2.808
  159POPC    HX18679   2.996   6.590   2.789
  159POPC    HY18680   3.155   6.538   2.854
  159POPC   O3118681   3.003   6.405   2.900
  159POPC   C3118682   2.871   6.401   2.899
  159POPC   O3218683   2.799   6.487   2.853
  159POPC   C3218684   2.820   6.284   2.983
  159POPC   H2X18685   2.750   6.329   3.057
  159POPC   H2Y18686   2.903   6.240   3.040
  159POPC   C2318687   3.191   6.054   2.797
  159POPC   H3R18688   3.197   5.942   2.799
  159POPC   H3S18689   3.083   6.081   2.791
  159POPC   C2418690   3.253   6.106   2.926
  159POPC   H4R18691   3.268   6.216   2.917
  159POPC   H4S18692   3.353   6.059   2.942
  159POPC   C2518693   3.163   6.076   3.045
  159POPC   H5R18694   3.145   5.966   3.051
  159POPC   H5S18695   3.065   6.123   3.025
  159POPC   C2618696   3.216   6.125   3.180
  159POPC   H6R18697   3.300   6.058   3.209
  159POPC   H6S18698   3.137   6.115   3.256
  159POPC   C2718699   3.265   6.270   3.187
  159POPC   H7R18700   3.337   6.289   3.105
  159POPC   H7S18701   3.319   6.282   3.283
  159POPC   C2818702   3.152   6.373   3.185
  159POPC   H8R18703   3.095   6.366   3.280
  159POPC   H8S18704   3.081   6.347   3.105
  159POPC   C2918705   3.212   6.509   3.160
  159POPC   H9118706   3.254   6.524   3.059
  159POPC  C21018707   3.217   6.611   3.247
  159POPC  H10118708   3.263   6.706   3.218
  159POPC  C21118709   3.160   6.605   3.386
  159POPC  H11R18710   3.213   6.675   3.454
  159POPC  H11S18711   3.175   6.503   3.429
  159POPC  C21218712   3.010   6.636   3.385
  159POPC  H12R18713   2.964   6.617   3.285
  159POPC  H12S18714   2.994   6.744   3.408
  159POPC  C21318715   2.934   6.550   3.484
  159POPC  H13R18716   2.945   6.443   3.453
  159POPC  H13S18717   2.825   6.574   3.478
  159POPC  C21418718   2.984   6.566   3.628
  159POPC  H14R18719   2.990   6.675   3.653
  159POPC  H14S18720   3.086   6.524   3.636
  159POPC  C21518721   2.895   6.496   3.730
  159POPC  H15R18722   2.806   6.559   3.752
  159POPC  H15S18723   2.951   6.487   3.826
  159POPC  C21618724   2.845   6.359   3.682
  159POPC  H16R18725   2.932   6.295   3.658
  159POPC  H16S18726   2.785   6.371   3.589
  159POPC  C21718727   2.754   6.292   3.784
  159POPC  H17R18728   2.710   6.203   3.735
  159POPC  H17S18729   2.670   6.362   3.807
  159POPC  C21818730   2.823   6.252   3.915
  159POPC  H18R18731   2.899   6.325   3.947
  159POPC  H18S18732   2.871   6.153   3.906
  159POPC  H18T18733   2.747   6.245   3.996
  159POPC   C3318734   2.744   6.177   2.902
  159POPC   H3X18735   2.816   6.114   2.846
  159POPC   H3Y18736   2.679   6.226   2.826
  159POPC   C3418737   2.655   6.091   2.992
  159POPC   H4X18738   2.605   6.012   2.932
  159POPC   H4Y18739   2.576   6.156   3.034
  159POPC   C3518740   2.730   6.026   3.110
  159POPC   H5X18741   2.654   5.992   3.182
  159POPC   H5Y18742   2.793   6.100   3.163
  159POPC   C3618743   2.812   5.903   3.072
  159POPC   H6X18744   2.903   5.935   3.017
  159POPC   H6Y18745   2.753   5.838   3.004
  159POPC   C3718746   2.852   5.820   3.196
  159POPC   H7X18747   2.915   5.734   3.163
  159POPC   H7Y18748   2.761   5.779   3.244
  159POPC   C3818749   2.930   5.901   3.300
  159POPC   H8X18750   2.859   5.969   3.354
  159POPC   H8Y18751   3.002   5.965   3.246
  159POPC   C3918752   3.006   5.815   3.401
  159POPC   H9X18753   3.101   5.781   3.353
  159POPC   H9Y18754   2.946   5.724   3.425
  159POPC  C31018755   3.041   5.888   3.532
  159POPC  H10X18756   3.112   5.825   3.590
  159POPC  H10Y18757   2.948   5.898   3.592
  159POPC  C31118758   3.103   6.027   3.509
  159POPC  H11X18759   3.025   6.096   3.470
  159POPC  H11Y18760   3.183   6.016   3.433
  159POPC  C31218761   3.167   6.091   3.633
  159POPC  H12X18762   3.197   6.195   3.607
  159POPC  H12Y18763   3.260   6.035   3.660
  159POPC  C31318764   3.075   6.095   3.755
  159POPC  H13X18765   2.971   6.067   3.725
  159POPC  H13Y18766   3.070   6.199   3.794
  159POPC  C31418767   3.121   6.003   3.869
  159POPC  H14X18768   3.166   5.911   3.825
  159POPC  H14Y18769   3.032   5.971   3.928
  159POPC  C31518770   3.220   6.073   3.963
  159POPC  H15X18771   3.288   6.139   3.903
  159POPC  H15Y18772   3.284   5.997   4.011
  159POPC  C31618773   3.151   6.155   4.072
  159POPC  H16X18774   3.100   6.244   4.029
  159POPC  H16Y18775   3.224   6.190   4.148
  159POPC  H16Z18776   3.074   6.093   4.124
  160POPC     N18777   3.979   6.254   2.451
  160POPC   C1218778   3.934   6.370   2.362
  160POPC  H12A18779   4.016   6.439   2.351
  160POPC  H12B18780   3.851   6.422   2.410
  160POPC   C1318781   3.867   6.155   2.456
  160POPC  H13A18782   3.774   6.205   2.482
  160POPC  H13B18783   3.847   6.121   2.355
  160POPC  H13C18784   3.887   6.072   2.521
  160POPC   C1418785   4.097   6.190   2.386
  160POPC  H14A18786   4.139   6.111   2.446
  160POPC  H14B18787   4.072   6.151   2.288
  160POPC  H14C18788   4.179   6.261   2.368
  160POPC   C1518789   4.017   6.296   2.590
  160POPC  H15A18790   3.939   6.355   2.637
  160POPC  H15B18791   4.111   6.350   2.590
  160POPC  H15C18792   4.032   6.208   2.653
  160POPC   C1118793   3.882   6.330   2.221
  160POPC  H11A18794   3.953   6.259   2.173
  160POPC  H11B18795   3.882   6.419   2.155
  160POPC     P18796   3.624   6.358   2.250
  160POPC   O1318797   3.499   6.285   2.216
  160POPC   O1418798   3.644   6.493   2.194
  160POPC   O1218799   3.753   6.269   2.224
  160POPC   O1118800   3.638   6.363   2.405
  160POPC    C118801   3.548   6.449   2.474
  160POPC    HA18802   3.442   6.414   2.463
  160POPC    HB18803   3.552   6.554   2.436
  160POPC    C218804   3.587   6.438   2.622
  160POPC    HS18805   3.508   6.482   2.686
  160POPC   O2118806   3.716   6.500   2.644
  160POPC   C2118807   3.703   6.633   2.633
  160POPC   O2218808   3.597   6.691   2.626
  160POPC   C2218809   3.837   6.701   2.656
  160POPC   H2R18810   3.847   6.783   2.581
  160POPC   H2S18811   3.920   6.629   2.641
  160POPC    C318812   3.595   6.286   2.652
  160POPC    HX18813   3.699   6.258   2.626
  160POPC    HY18814   3.528   6.232   2.582
  160POPC   O3118815   3.557   6.255   2.787
  160POPC   C3118816   3.647   6.188   2.855
  160POPC   O3218817   3.753   6.145   2.813
  160POPC   C3218818   3.608   6.188   3.002
  160POPC   H2X18819   3.606   6.083   3.038
  160POPC   H2Y18820   3.509   6.234   3.015
  160POPC   C2318821   3.836   6.759   2.798
  160POPC   H3R18822   3.754   6.833   2.810
  160POPC   H3S18823   3.930   6.814   2.821
  160POPC   C2418824   3.823   6.649   2.904
  160POPC   H4R18825   3.875   6.556   2.870
  160POPC   H4S18826   3.715   6.623   2.916
  160POPC   C2518827   3.883   6.695   3.036
  160POPC   H5R18828   3.838   6.793   3.064
  160POPC   H5S18829   3.991   6.711   3.023
  160POPC   C2618830   3.857   6.595   3.148
  160POPC   H6R18831   3.816   6.505   3.103
  160POPC   H6S18832   3.781   6.637   3.218
  160POPC   C2718833   3.980   6.548   3.227
  160POPC   H7R18834   3.947   6.486   3.314
  160POPC   H7S18835   4.022   6.641   3.268
  160POPC   C2818836   4.085   6.471   3.144
  160POPC   H8R18837   4.181   6.480   3.199
  160POPC   H8S18838   4.099   6.523   3.047
  160POPC   C2918839   4.058   6.326   3.113
  160POPC   H9118840   4.023   6.306   3.010
  160POPC  C21018841   4.071   6.223   3.198
  160POPC  H10118842   4.051   6.121   3.163
  160POPC  C21118843   4.115   6.234   3.342
  160POPC  H11R18844   4.146   6.338   3.369
  160POPC  H11S18845   4.203   6.168   3.361
  160POPC  C21218846   4.003   6.192   3.438
  160POPC  H12R18847   3.970   6.088   3.414
  160POPC  H12S18848   3.915   6.259   3.423
  160POPC  C21318849   4.043   6.201   3.586
  160POPC  H13R18850   4.062   6.307   3.613
  160POPC  H13S18851   4.137   6.144   3.603
  160POPC  C21418852   3.933   6.143   3.675
  160POPC  H14R18853   3.940   6.032   3.667
  160POPC  H14S18854   3.833   6.174   3.636
  160POPC  C21518855   3.938   6.179   3.825
  160POPC  H15R18856   3.906   6.285   3.839
  160POPC  H15S18857   4.042   6.169   3.862
  160POPC  C21618858   3.846   6.085   3.904
  160POPC  H16R18859   3.889   5.983   3.895
  160POPC  H16S18860   3.746   6.085   3.856
  160POPC  C21718861   3.828   6.114   4.053
  160POPC  H17R18862   3.741   6.055   4.089
  160POPC  H17S18863   3.804   6.221   4.068
  160POPC  C21818864   3.949   6.079   4.139
  160POPC  H18R18865   3.979   5.973   4.125
  160POPC  H18S18866   3.925   6.095   4.247
  160POPC  H18T18867   4.034   6.145   4.113
  160POPC   C3318868   3.715   6.270   3.073
  160POPC   H3X18869   3.718   6.368   3.020
  160POPC   H3Y18870   3.814   6.221   3.058
  160POPC   C3418871   3.698   6.294   3.223
  160POPC   H4X18872   3.799   6.323   3.260
  160POPC   H4Y18873   3.671   6.200   3.275
  160POPC   C3518874   3.604   6.409   3.261
  160POPC   H5X18875   3.499   6.377   3.251
  160POPC   H5Y18876   3.617   6.492   3.189
  160POPC   C3618877   3.630   6.463   3.403
  160POPC   H6X18878   3.739   6.471   3.419
  160POPC   H6Y18879   3.591   6.390   3.478
  160POPC   C3718880   3.568   6.602   3.426
  160POPC   H7X18881   3.459   6.597   3.401
  160POPC   H7Y18882   3.614   6.676   3.358
  160POPC   C3818883   3.581   6.653   3.571
  160POPC   H8X18884   3.529   6.581   3.637
  160POPC   H8Y18885   3.526   6.749   3.579
  160POPC   C3918886   3.725   6.678   3.618
  160POPC   H9X18887   3.768   6.756   3.551
  160POPC   H9Y18888   3.788   6.587   3.606
  160POPC  C31018889   3.735   6.729   3.763
  160POPC  H10X18890   3.651   6.798   3.785
  160POPC  H10Y18891   3.828   6.787   3.773
  160POPC  C31118892   3.743   6.621   3.872
  160POPC  H11X18893   3.756   6.673   3.970
  160POPC  H11Y18894   3.833   6.558   3.855
  160POPC  C31218895   3.620   6.531   3.879
  160POPC  H12X18896   3.616   6.472   3.785
  160POPC  H12Y18897   3.527   6.593   3.886
  160POPC  C31318898   3.624   6.430   3.994
  160POPC  H13X18899   3.722   6.380   3.989
  160POPC  H13Y18900   3.545   6.354   3.975
  160POPC  C31418901   3.604   6.490   4.133
  160POPC  H14X18902   3.514   6.556   4.134
  160POPC  H14Y18903   3.692   6.554   4.159
  160POPC  C31518904   3.587   6.382   4.241
  160POPC  H15X18905   3.599   6.429   4.341
  160POPC  H15Y18906   3.669   6.307   4.231
  160POPC  C31618907   3.452   6.310   4.234
  160POPC  H16X18908   3.446   6.247   4.143
  160POPC  H16Y18909   3.369   6.384   4.231
  160POPC  H16Z18910   3.438   6.244   4.323
  161POPC     N18911   4.102   1.341   2.173
  161POPC   C1218912   4.074   1.452   2.272
  161POPC  H12A18913   3.973   1.441   2.309
  161POPC  H12B18914   4.073   1.548   2.221
  161POPC   C1318915   4.121   1.213   2.250
  161POPC  H13A18916   4.034   1.188   2.309
  161POPC  H13B18917   4.151   1.130   2.188
  161POPC  H13C18918   4.203   1.228   2.322
  161POPC   C1418919   3.994   1.327   2.073
  161POPC  H14A18920   3.964   1.422   2.029
  161POPC  H14B18921   4.027   1.264   1.991
  161POPC  H14C18922   3.908   1.278   2.116
  161POPC   C1518923   4.231   1.369   2.101
  161POPC  H15A18924   4.307   1.392   2.176
  161POPC  H15B18925   4.222   1.455   2.037
  161POPC  H15C18926   4.268   1.284   2.046
  161POPC   C1118927   4.174   1.464   2.389
  161POPC  H11A18928   4.172   1.375   2.456
  161POPC  H11B18929   4.144   1.550   2.451
  161POPC     P18930   4.436   1.431   2.398
  161POPC   O1318931   4.544   1.495   2.321
  161POPC   O1418932   4.431   1.282   2.391
  161POPC   O1218933   4.303   1.489   2.337
  161POPC   O1118934   4.414   1.494   2.543
  161POPC    C118935   4.403   1.638   2.549
  161POPC    HA18936   4.344   1.679   2.463
  161POPC    HB18937   4.503   1.687   2.540
  161POPC    C218938   4.336   1.702   2.676
  161POPC    HS18939   4.331   1.811   2.651
  161POPC   O2118940   4.399   1.673   2.802
  161POPC   C2118941   4.465   1.777   2.847
  161POPC   O2218942   4.502   1.872   2.780
  161POPC   C2218943   4.475   1.773   2.997
  161POPC   H2R18944   4.492   1.878   3.025
  161POPC   H2S18945   4.563   1.712   3.023
  161POPC    C318946   4.188   1.667   2.699
  161POPC    HX18947   4.143   1.687   2.600
  161POPC    HY18948   4.153   1.744   2.772
  161POPC   O3118949   4.157   1.533   2.744
  161POPC   C3118950   4.081   1.523   2.853
  161POPC   O3218951   4.020   1.612   2.908
  161POPC   C3218952   4.103   1.386   2.913
  161POPC   H2X18953   4.125   1.312   2.833
  161POPC   H2Y18954   4.011   1.356   2.967
  161POPC   C2318955   4.351   1.723   3.075
  161POPC   H3R18956   4.388   1.664   3.163
  161POPC   H3S18957   4.291   1.654   3.012
  161POPC   C2418958   4.261   1.836   3.127
  161POPC   H4R18959   4.169   1.841   3.066
  161POPC   H4S18960   4.315   1.932   3.116
  161POPC   C2518961   4.222   1.820   3.276
  161POPC   H5R18962   4.314   1.805   3.333
  161POPC   H5S18963   4.160   1.728   3.287
  161POPC   C2618964   4.149   1.938   3.343
  161POPC   H6R18965   4.125   1.914   3.449
  161POPC   H6S18966   4.055   1.940   3.287
  161POPC   C2718967   4.214   2.078   3.337
  161POPC   H7R18968   4.136   2.158   3.339
  161POPC   H7S18969   4.266   2.089   3.239
  161POPC   C2818970   4.315   2.106   3.450
  161POPC   H8R18971   4.387   2.180   3.407
  161POPC   H8S18972   4.370   2.011   3.464
  161POPC   C2918973   4.274   2.163   3.584
  161POPC   H9118974   4.190   2.234   3.584
  161POPC  C21018975   4.337   2.134   3.699
  161POPC  H10118976   4.309   2.187   3.791
  161POPC  C21118977   4.457   2.042   3.712
  161POPC  H11R18978   4.537   2.089   3.651
  161POPC  H11S18979   4.432   1.950   3.660
  161POPC  C21218980   4.510   2.018   3.856
  161POPC  H12R18981   4.442   2.067   3.930
  161POPC  H12S18982   4.598   2.087   3.852
  161POPC  C21318983   4.579   1.893   3.927
  161POPC  H13R18984   4.555   1.916   4.034
  161POPC  H13S18985   4.688   1.901   3.910
  161POPC  C21418986   4.557   1.740   3.931
  161POPC  H14R18987   4.613   1.697   3.845
  161POPC  H14S18988   4.453   1.710   3.926
  161POPC  C21518989   4.616   1.665   4.054
  161POPC  H15R18990   4.718   1.702   4.078
  161POPC  H15S18991   4.628   1.559   4.020
  161POPC  C21618992   4.526   1.660   4.180
  161POPC  H16R18993   4.540   1.560   4.228
  161POPC  H16S18994   4.420   1.668   4.150
  161POPC  C21718995   4.557   1.767   4.285
  161POPC  H17R18996   4.545   1.866   4.235
  161POPC  H17S18997   4.663   1.756   4.318
  161POPC  C21818998   4.466   1.770   4.408
  161POPC  H18R18999   4.359   1.769   4.378
  161POPC  H18S19000   4.483   1.864   4.466
  161POPC  H18T19001   4.484   1.684   4.476
  161POPC   C3319002   4.221   1.404   3.009
  161POPC   H3X19003   4.194   1.489   3.077
  161POPC   H3Y19004   4.314   1.432   2.954
  161POPC   C3419005   4.247   1.286   3.100
  161POPC   H4X19006   4.321   1.217   3.054
  161POPC   H4Y19007   4.152   1.230   3.114
  161POPC   C3519008   4.299   1.331   3.237
  161POPC   H5X19009   4.241   1.419   3.274
  161POPC   H5Y19010   4.405   1.363   3.227
  161POPC   C3619011   4.286   1.217   3.336
  161POPC   H6X19012   4.319   1.124   3.283
  161POPC   H6Y19013   4.179   1.202   3.363
  161POPC   C3719014   4.369   1.235   3.463
  161POPC   H7X19015   4.478   1.238   3.437
  161POPC   H7Y19016   4.351   1.145   3.526
  161POPC   C3819017   4.335   1.359   3.545
  161POPC   H8X19018   4.225   1.376   3.541
  161POPC   H8Y19019   4.384   1.448   3.499
  161POPC   C3919020   4.378   1.341   3.691
  161POPC   H9X19021   4.452   1.418   3.719
  161POPC   H9Y19022   4.430   1.244   3.703
  161POPC  C31019023   4.260   1.347   3.789
  161POPC  H10X19024   4.183   1.273   3.756
  161POPC  H10Y19025   4.215   1.448   3.786
  161POPC  C31119026   4.303   1.313   3.932
  161POPC  H11X19027   4.392   1.373   3.961
  161POPC  H11Y19028   4.332   1.206   3.934
  161POPC  C31219029   4.190   1.336   4.034
  161POPC  H12X19030   4.199   1.260   4.114
  161POPC  H12Y19031   4.093   1.314   3.984
  161POPC  C31319032   4.189   1.476   4.096
  161POPC  H13X19033   4.169   1.552   4.019
  161POPC  H13Y19034   4.289   1.500   4.138
  161POPC  C31419035   4.084   1.495   4.207
  161POPC  H14X19036   4.136   1.516   4.302
  161POPC  H14Y19037   4.026   1.401   4.220
  161POPC  C31519038   3.988   1.611   4.181
  161POPC  H15X19039   3.919   1.583   4.099
  161POPC  H15Y19040   4.044   1.701   4.147
  161POPC  C31619041   3.903   1.643   4.303
  161POPC  H16X19042   3.963   1.698   4.377
  161POPC  H16Y19043   3.870   1.549   4.350
  161POPC  H16Z19044   3.814   1.704   4.276
  162POPC     N19045   3.400   1.326   2.386
  162POPC   C1219046   3.389   1.298   2.238
  162POPC  H12A19047   3.436   1.380   2.184
  162POPC  H12B19048   3.283   1.300   2.211
  162POPC   C1319049   3.527   1.271   2.443
  162POPC  H13A19050   3.535   1.289   2.550
  162POPC  H13B19051   3.528   1.163   2.430
  162POPC  H13C19052   3.614   1.311   2.393
  162POPC   C1419053   3.397   1.472   2.406
  162POPC  H14A19054   3.304   1.517   2.372
  162POPC  H14B19055   3.414   1.499   2.510
  162POPC  H14C19056   3.475   1.523   2.350
  162POPC   C1519057   3.285   1.258   2.453
  162POPC  H15A19058   3.190   1.299   2.422
  162POPC  H15B19059   3.292   1.263   2.561
  162POPC  H15C19060   3.286   1.153   2.424
  162POPC   C1119061   3.449   1.165   2.188
  162POPC  H11A19062   3.560   1.170   2.201
  162POPC  H11B19063   3.432   1.158   2.078
  162POPC     P19064   3.481   0.930   2.294
  162POPC   O1319065   3.570   0.909   2.178
  162POPC   O1419066   3.392   0.818   2.333
  162POPC   O1219067   3.387   1.052   2.252
  162POPC   O1119068   3.563   0.987   2.416
  162POPC    C119069   3.639   0.904   2.505
  162POPC    HA19070   3.743   0.943   2.509
  162POPC    HB19071   3.644   0.797   2.473
  162POPC    C219072   3.580   0.908   2.649
  162POPC    HS19073   3.491   0.841   2.648
  162POPC   O2119074   3.547   1.045   2.682
  162POPC   C2119075   3.427   1.063   2.733
  162POPC   O2219076   3.337   0.982   2.738
  162POPC   C2219077   3.420   1.206   2.787
  162POPC   H2R19078   3.328   1.255   2.750
  162POPC   H2S19079   3.509   1.263   2.752
  162POPC    C319080   3.678   0.854   2.759
  162POPC    HX19081   3.774   0.907   2.745
  162POPC    HY19082   3.699   0.745   2.741
  162POPC   O3119083   3.630   0.884   2.892
  162POPC   C3119084   3.572   0.786   2.960
  162POPC   O3219085   3.567   0.670   2.926
  162POPC   C3219086   3.512   0.839   3.090
  162POPC   H2X19087   3.495   0.948   3.080
  162POPC   H2Y19088   3.587   0.823   3.170
  162POPC   C2319089   3.419   1.204   2.941
  162POPC   H3R19090   3.488   1.125   2.977
  162POPC   H3S19091   3.317   1.180   2.978
  162POPC   C2419092   3.467   1.336   3.001
  162POPC   H4R19093   3.419   1.421   2.949
  162POPC   H4S19094   3.577   1.343   2.986
  162POPC   C2519095   3.436   1.345   3.151
  162POPC   H5R19096   3.326   1.333   3.164
  162POPC   H5S19097   3.464   1.446   3.190
  162POPC   C2619098   3.507   1.236   3.233
  162POPC   H6R19099   3.479   1.135   3.197
  162POPC   H6S19100   3.467   1.242   3.336
  162POPC   C2719101   3.660   1.250   3.233
  162POPC   H7R19102   3.684   1.356   3.258
  162POPC   H7S19103   3.702   1.229   3.132
  162POPC   C2819104   3.727   1.161   3.340
  162POPC   H8R19105   3.656   1.161   3.425
  162POPC   H8S19106   3.821   1.210   3.373
  162POPC   C2919107   3.758   1.019   3.299
  162POPC   H9119108   3.800   1.011   3.197
  162POPC  C21019109   3.744   0.907   3.371
  162POPC  H10119110   3.773   0.812   3.323
  162POPC  C21119111   3.693   0.886   3.512
  162POPC  H11R19112   3.746   0.796   3.553
  162POPC  H11S19113   3.585   0.858   3.510
  162POPC  C21219114   3.710   0.996   3.620
  162POPC  H12R19115   3.630   1.070   3.606
  162POPC  H12S19116   3.809   1.046   3.611
  162POPC  C21319117   3.696   0.938   3.762
  162POPC  H13R19118   3.773   0.860   3.777
  162POPC  H13S19119   3.598   0.884   3.766
  162POPC  C21419120   3.699   1.036   3.881
  162POPC  H14R19121   3.677   0.978   3.974
  162POPC  H14S19122   3.620   1.112   3.869
  162POPC  C21519123   3.824   1.120   3.906
  162POPC  H15R19124   3.807   1.211   3.847
  162POPC  H15S19125   3.916   1.072   3.866
  162POPC  C21619126   3.843   1.159   4.054
  162POPC  H16R19127   3.921   1.238   4.060
  162POPC  H16S19128   3.879   1.071   4.111
  162POPC  C21719129   3.717   1.214   4.123
  162POPC  H17R19130   3.647   1.129   4.142
  162POPC  H17S19131   3.666   1.285   4.055
  162POPC  C21819132   3.743   1.283   4.257
  162POPC  H18R19133   3.796   1.215   4.328
  162POPC  H18S19134   3.648   1.316   4.304
  162POPC  H18T19135   3.806   1.373   4.241
  162POPC   C3319136   3.380   0.768   3.128
  162POPC   H3X19137   3.403   0.660   3.149
  162POPC   H3Y19138   3.309   0.771   3.042
  162POPC   C3419139   3.312   0.829   3.251
  162POPC   H4X19140   3.388   0.850   3.329
  162POPC   H4Y19141   3.240   0.754   3.292
  162POPC   C3519142   3.233   0.958   3.220
  162POPC   H5X19143   3.145   0.933   3.157
  162POPC   H5Y19144   3.297   1.026   3.160
  162POPC   C3619145   3.187   1.034   3.346
  162POPC   H6X19146   3.131   1.125   3.315
  162POPC   H6Y19147   3.279   1.067   3.399
  162POPC   C3719148   3.101   0.950   3.442
  162POPC   H7X19149   3.159   0.860   3.471
  162POPC   H7Y19150   3.010   0.916   3.388
  162POPC   C3819151   3.057   1.020   3.573
  162POPC   H8X19152   3.032   0.941   3.648
  162POPC   H8Y19153   2.963   1.075   3.557
  162POPC   C3919154   3.159   1.116   3.635
  162POPC   H9X19155   3.109   1.179   3.713
  162POPC   H9Y19156   3.198   1.187   3.559
  162POPC  C31019157   3.273   1.039   3.700
  162POPC  H10X19158   3.312   0.966   3.625
  162POPC  H10Y19159   3.237   0.981   3.788
  162POPC  C31119160   3.391   1.128   3.739
  162POPC  H11X19161   3.418   1.194   3.654
  162POPC  H11Y19162   3.474   1.057   3.752
  162POPC  C31219163   3.377   1.211   3.869
  162POPC  H12X19164   3.280   1.265   3.865
  162POPC  H12Y19165   3.458   1.287   3.870
  162POPC  C31319166   3.387   1.130   4.000
  162POPC  H13X19167   3.485   1.082   4.013
  162POPC  H13Y19168   3.316   1.045   3.997
  162POPC  C31419169   3.361   1.219   4.123
  162POPC  H14X19170   3.280   1.290   4.097
  162POPC  H14Y19171   3.451   1.279   4.146
  162POPC  C31519172   3.316   1.142   4.249
  162POPC  H15X19173   3.222   1.088   4.224
  162POPC  H15Y19174   3.292   1.217   4.327
  162POPC  C31619175   3.415   1.041   4.307
  162POPC  H16X19176   3.510   1.090   4.335
  162POPC  H16Y19177   3.436   0.960   4.234
  162POPC  H16Z19178   3.371   0.995   4.399
  163POPC     N19179   5.942   5.929   2.140
  163POPC   C1219180   5.860   5.851   2.241
  163POPC  H12A19181   5.800   5.775   2.191
  163POPC  H12B19182   5.789   5.920   2.286
  163POPC   C1319183   6.071   5.857   2.113
  163POPC  H13A19184   6.054   5.757   2.078
  163POPC  H13B19185   6.137   5.910   2.045
  163POPC  H13C19186   6.125   5.849   2.208
  163POPC   C1419187   5.862   5.959   2.018
  163POPC  H14A19188   5.785   6.031   2.043
  163POPC  H14B19189   5.923   6.005   1.942
  163POPC  H14C19190   5.814   5.871   1.976
  163POPC   C1519191   5.976   6.061   2.203
  163POPC  H15A19192   6.021   6.042   2.300
  163POPC  H15B19193   5.888   6.123   2.219
  163POPC  H15C19194   6.046   6.116   2.143
  163POPC   C1119195   5.938   5.786   2.356
  163POPC  H11A19196   5.996   5.697   2.322
  163POPC  H11B19197   5.861   5.752   2.428
  163POPC     P19198   6.169   5.873   2.461
  163POPC   O1319199   6.227   5.995   2.402
  163POPC   O1419200   6.221   5.740   2.422
  163POPC   O1219201   6.017   5.882   2.422
  163POPC   O1119202   6.155   5.892   2.619
  163POPC    C119203   6.049   5.976   2.666
  163POPC    HA19204   5.963   5.911   2.692
  163POPC    HB19205   6.012   6.048   2.587
  163POPC    C219206   6.081   6.073   2.785
  163POPC    HS19207   6.122   6.165   2.736
  163POPC   O2119208   6.172   6.028   2.889
  163POPC   C2119209   6.220   6.130   2.964
  163POPC   O2219210   6.215   6.248   2.933
  163POPC   C2219211   6.279   6.077   3.094
  163POPC   H2R19212   6.346   6.153   3.137
  163POPC   H2S19213   6.340   5.987   3.068
  163POPC    C319214   5.946   6.109   2.850
  163POPC    HX19215   5.879   6.144   2.769
  163POPC    HY19216   5.967   6.193   2.920
  163POPC   O3119217   5.878   5.997   2.910
  163POPC   C3119218   5.812   6.039   3.018
  163POPC   O3219219   5.853   6.119   3.099
  163POPC   C3219220   5.670   5.989   3.011
  163POPC   H2X19221   5.679   5.881   3.027
  163POPC   H2Y19222   5.633   5.999   2.908
  163POPC   C2319223   6.170   6.035   3.195
  163POPC   H3R19224   6.214   5.965   3.269
  163POPC   H3S19225   6.090   5.979   3.141
  163POPC   C2419226   6.105   6.151   3.275
  163POPC   H4R19227   6.058   6.222   3.204
  163POPC   H4S19228   6.180   6.206   3.335
  163POPC   C2519229   5.996   6.093   3.366
  163POPC   H5R19230   6.042   6.036   3.449
  163POPC   H5S19231   5.944   6.018   3.302
  163POPC   C2619232   5.883   6.185   3.415
  163POPC   H6R19233   5.801   6.122   3.455
  163POPC   H6S19234   5.841   6.241   3.329
  163POPC   C2719235   5.919   6.284   3.527
  163POPC   H7R19236   5.824   6.324   3.568
  163POPC   H7S19237   5.975   6.367   3.479
  163POPC   C2819238   5.999   6.228   3.645
  163POPC   H8R19239   6.042   6.313   3.703
  163POPC   H8S19240   6.086   6.170   3.608
  163POPC   C2919241   5.909   6.145   3.733
  163POPC   H9119242   5.853   6.068   3.677
  163POPC  C21019243   5.875   6.168   3.861
  163POPC  H10119244   5.832   6.084   3.917
  163POPC  C21119245   5.919   6.284   3.945
  163POPC  H11R19246   5.926   6.372   3.877
  163POPC  H11S19247   6.023   6.266   3.974
  163POPC  C21219248   5.831   6.340   4.062
  163POPC  H12R19249   5.738   6.375   4.012
  163POPC  H12S19250   5.886   6.430   4.099
  163POPC  C21319251   5.783   6.265   4.190
  163POPC  H13R19252   5.719   6.178   4.170
  163POPC  H13S19253   5.715   6.341   4.237
  163POPC  C21419254   5.884   6.231   4.300
  163POPC  H14R19255   5.963   6.310   4.302
  163POPC  H14S19256   5.934   6.136   4.274
  163POPC  C21519257   5.822   6.228   4.442
  163POPC  H15R19258   5.743   6.306   4.449
  163POPC  H15S19259   5.900   6.253   4.517
  163POPC  C21619260   5.760   6.094   4.484
  163POPC  H16R19261   5.674   6.073   4.416
  163POPC  H16S19262   5.720   6.103   4.587
  163POPC  C21719263   5.856   5.975   4.482
  163POPC  H17R19264   5.922   5.978   4.572
  163POPC  H17S19265   5.921   5.977   4.393
  163POPC  C21819266   5.776   5.846   4.479
  163POPC  H18R19267   5.681   5.861   4.424
  163POPC  H18S19268   5.753   5.810   4.581
  163POPC  H18T19269   5.833   5.766   4.428
  163POPC   C3319270   5.576   6.070   3.103
  163POPC   H3X19271   5.514   6.139   3.041
  163POPC   H3Y19272   5.632   6.136   3.173
  163POPC   C3419273   5.482   5.986   3.189
  163POPC   H4X19274   5.395   5.956   3.127
  163POPC   H4Y19275   5.443   6.046   3.274
  163POPC   C3519276   5.548   5.859   3.245
  163POPC   H5X19277   5.580   5.799   3.160
  163POPC   H5Y19278   5.467   5.803   3.293
  163POPC   C3619279   5.668   5.878   3.338
  163POPC   H6X19280   5.644   5.849   3.441
  163POPC   H6Y19281   5.695   5.986   3.337
  163POPC   C3719282   5.795   5.794   3.316
  163POPC   H7X19283   5.847   5.837   3.228
  163POPC   H7Y19284   5.773   5.688   3.294
  163POPC   C3819285   5.880   5.811   3.445
  163POPC   H8X19286   5.860   5.916   3.477
  163POPC   H8Y19287   5.989   5.810   3.424
  163POPC   C3919288   5.846   5.724   3.568
  163POPC   H9X19289   5.906   5.632   3.574
  163POPC   H9Y19290   5.740   5.691   3.562
  163POPC  C31019291   5.874   5.797   3.700
  163POPC  H10X19292   5.778   5.817   3.753
  163POPC  H10Y19293   5.922   5.893   3.674
  163POPC  C31119294   5.977   5.732   3.793
  163POPC  H11X19295   6.072   5.707   3.745
  163POPC  H11Y19296   5.937   5.635   3.831
  163POPC  C31219297   6.013   5.823   3.909
  163POPC  H12X19298   6.032   5.755   3.995
  163POPC  H12Y19299   5.925   5.888   3.927
  163POPC  C31319300   6.135   5.916   3.907
  163POPC  H13X19301   6.131   5.984   3.819
  163POPC  H13Y19302   6.231   5.862   3.905
  163POPC  C31419303   6.128   5.995   4.038
  163POPC  H14X19304   6.136   5.924   4.124
  163POPC  H14Y19305   6.027   6.041   4.046
  163POPC  C31519306   6.231   6.106   4.057
  163POPC  H15X19307   6.245   6.162   3.962
  163POPC  H15Y19308   6.328   6.058   4.084
  163POPC  C31619309   6.189   6.201   4.169
  163POPC  H16X19310   6.151   6.140   4.253
  163POPC  H16Y19311   6.106   6.268   4.142
  163POPC  H16Z19312   6.272   6.266   4.202
  164POPC     N19313   0.545   4.299   2.270
  164POPC   C1219314   0.685   4.347   2.235
  164POPC  H12A19315   0.722   4.401   2.323
  164POPC  H12B19316   0.679   4.413   2.150
  164POPC   C1319317   0.500   4.198   2.169
  164POPC  H13A19318   0.508   4.237   2.069
  164POPC  H13B19319   0.559   4.108   2.182
  164POPC  H13C19320   0.396   4.173   2.190
  164POPC   C1419321   0.547   4.232   2.404
  164POPC  H14A19322   0.448   4.201   2.436
  164POPC  H14B19323   0.611   4.143   2.398
  164POPC  H14C19324   0.591   4.296   2.480
  164POPC   C1519325   0.447   4.412   2.271
  164POPC  H15A19326   0.347   4.371   2.279
  164POPC  H15B19327   0.451   4.470   2.180
  164POPC  H15C19328   0.459   4.479   2.357
  164POPC   C1119329   0.789   4.237   2.204
  164POPC  H11A19330   0.883   4.286   2.168
  164POPC  H11B19331   0.754   4.173   2.120
  164POPC     P19332   0.915   4.214   2.428
  164POPC   O1319333   0.867   4.345   2.476
  164POPC   O1419334   1.048   4.201   2.363
  164POPC   O1219335   0.810   4.158   2.321
  164POPC   O1119336   0.898   4.112   2.546
  164POPC    C119337   0.932   3.977   2.523
  164POPC    HA19338   1.026   3.965   2.463
  164POPC    HB19339   0.849   3.926   2.469
  164POPC    C219340   0.958   3.906   2.658
  164POPC    HS19341   0.964   3.797   2.635
  164POPC   O2119342   0.852   3.932   2.754
  164POPC   C2119343   0.737   3.872   2.720
  164POPC   O2219344   0.725   3.788   2.633
  164POPC   C2219345   0.623   3.913   2.814
  164POPC   H2R19346   0.545   3.834   2.808
  164POPC   H2S19347   0.579   4.006   2.772
  164POPC    C319348   1.096   3.945   2.721
  164POPC    HX19349   1.173   3.913   2.648
  164POPC    HY19350   1.103   3.885   2.813
  164POPC   O3119351   1.116   4.082   2.761
  164POPC   C3119352   1.240   4.099   2.809
  164POPC   O3219353   1.339   4.038   2.773
  164POPC   C3219354   1.231   4.185   2.932
  164POPC   H2X19355   1.193   4.285   2.900
  164POPC   H2Y19356   1.332   4.193   2.975
  164POPC   C2319357   0.664   3.934   2.961
  164POPC   H3R19358   0.579   3.983   3.015
  164POPC   H3S19359   0.751   4.004   2.967
  164POPC   C2419360   0.699   3.804   3.036
  164POPC   H4R19361   0.767   3.742   2.974
  164POPC   H4S19362   0.606   3.746   3.054
  164POPC   C2519363   0.769   3.836   3.169
  164POPC   H5R19364   0.706   3.903   3.231
  164POPC   H5S19365   0.862   3.892   3.144
  164POPC   C2619366   0.808   3.713   3.252
  164POPC   H6R19367   0.832   3.629   3.182
  164POPC   H6S19368   0.722   3.681   3.314
  164POPC   C2719369   0.932   3.736   3.340
  164POPC   H7R19370   1.020   3.742   3.272
  164POPC   H7S19371   0.948   3.648   3.407
  164POPC   C2819372   0.932   3.866   3.423
  164POPC   H8R19373   0.908   3.951   3.356
  164POPC   H8S19374   1.035   3.884   3.458
  164POPC   C2919375   0.836   3.866   3.539
  164POPC   H9119376   0.734   3.900   3.516
  164POPC  C21019377   0.866   3.831   3.665
  164POPC  H10119378   0.788   3.841   3.742
  164POPC  C21119379   0.999   3.783   3.717
  164POPC  H11R19380   1.072   3.764   3.635
  164POPC  H11S19381   0.986   3.685   3.769
  164POPC  C21219382   1.061   3.884   3.816
  164POPC  H12R19383   1.084   3.978   3.761
  164POPC  H12S19384   1.158   3.842   3.852
  164POPC  C21319385   0.972   3.914   3.937
  164POPC  H13R19386   0.939   3.818   3.981
  164POPC  H13S19387   0.881   3.967   3.902
  164POPC  C21419388   1.040   3.998   4.047
  164POPC  H14R19389   1.129   3.942   4.083
  164POPC  H14S19390   0.969   4.004   4.132
  164POPC  C21519391   1.081   4.140   4.001
  164POPC  H15R19392   0.989   4.197   3.974
  164POPC  H15S19393   1.143   4.130   3.910
  164POPC  C21619394   1.163   4.217   4.106
  164POPC  H16R19395   1.246   4.149   4.134
  164POPC  H16S19396   1.104   4.235   4.198
  164POPC  C21719397   1.227   4.349   4.056
  164POPC  H17R19398   1.265   4.334   3.952
  164POPC  H17S19399   1.315   4.369   4.121
  164POPC  C21819400   1.141   4.476   4.059
  164POPC  H18R19401   1.113   4.501   4.164
  164POPC  H18S19402   1.049   4.465   3.998
  164POPC  H18T19403   1.197   4.563   4.018
  164POPC   C3319404   1.139   4.127   3.040
  164POPC   H3X19405   1.183   4.034   3.083
  164POPC   H3Y19406   1.040   4.101   2.996
  164POPC   C3419407   1.117   4.231   3.150
  164POPC   H4X19408   1.084   4.326   3.102
  164POPC   H4Y19409   1.212   4.251   3.204
  164POPC   C3519410   1.010   4.185   3.246
  164POPC   H5X19411   1.049   4.102   3.309
  164POPC   H5Y19412   0.925   4.145   3.187
  164POPC   C3619413   0.956   4.295   3.336
  164POPC   H6X19414   0.931   4.386   3.276
  164POPC   H6Y19415   1.033   4.323   3.412
  164POPC   C3719416   0.830   4.243   3.405
  164POPC   H7X19417   0.856   4.146   3.453
  164POPC   H7Y19418   0.752   4.223   3.328
  164POPC   C3819419   0.775   4.335   3.512
  164POPC   H8X19420   0.742   4.430   3.465
  164POPC   H8Y19421   0.855   4.359   3.584
  164POPC   C3919422   0.658   4.267   3.583
  164POPC   H9X19423   0.652   4.161   3.548
  164POPC   H9Y19424   0.562   4.316   3.555
  164POPC  C31019425   0.674   4.264   3.735
  164POPC  H10X19426   0.637   4.360   3.778
  164POPC  H10Y19427   0.783   4.257   3.760
  164POPC  C31119428   0.603   4.144   3.798
  164POPC  H11X19429   0.664   4.053   3.781
  164POPC  H11Y19430   0.504   4.129   3.749
  164POPC  C31219431   0.579   4.160   3.948
  164POPC  H12X19432   0.531   4.069   3.990
  164POPC  H12Y19433   0.509   4.246   3.963
  164POPC  C31319434   0.706   4.188   4.027
  164POPC  H13X19435   0.757   4.276   3.982
  164POPC  H13Y19436   0.774   4.102   4.020
  164POPC  C31419437   0.679   4.217   4.175
  164POPC  H14X19438   0.624   4.132   4.222
  164POPC  H14Y19439   0.617   4.309   4.182
  164POPC  C31519440   0.808   4.243   4.251
  164POPC  H15X19441   0.879   4.159   4.236
  164POPC  H15Y19442   0.786   4.246   4.360
  164POPC  C31619443   0.873   4.373   4.205
  164POPC  H16X19444   0.803   4.459   4.216
  164POPC  H16Y19445   0.902   4.366   4.099
  164POPC  H16Z19446   0.965   4.394   4.264
  165POPC     N19447   2.292   6.556   2.143
  165POPC   C1219448   2.335   6.696   2.183
  165POPC  H12A19449   2.253   6.743   2.236
  165POPC  H12B19450   2.356   6.756   2.094
  165POPC   C1319451   2.413   6.471   2.115
  165POPC  H13A19452   2.483   6.481   2.199
  165POPC  H13B19453   2.391   6.366   2.106
  165POPC  H13C19454   2.469   6.502   2.027
  165POPC   C1419455   2.224   6.490   2.259
  165POPC  H14A19456   2.201   6.386   2.238
  165POPC  H14B19457   2.295   6.491   2.343
  165POPC  H14C19458   2.136   6.543   2.294
  165POPC   C1519459   2.200   6.562   2.025
  165POPC  H15A19460   2.253   6.598   1.938
  165POPC  H15B19461   2.115   6.627   2.046
  165POPC  H15C19462   2.161   6.464   2.003
  165POPC   C1119463   2.458   6.711   2.275
  165POPC  H11A19464   2.470   6.821   2.292
  165POPC  H11B19465   2.551   6.675   2.225
  165POPC     P19466   2.511   6.688   2.528
  165POPC   O1319467   2.560   6.827   2.510
  165POPC   O1419468   2.609   6.587   2.566
  165POPC   O1219469   2.437   6.640   2.396
  165POPC   O1119470   2.388   6.686   2.627
  165POPC    C119471   2.305   6.568   2.638
  165POPC    HA19472   2.366   6.482   2.672
  165POPC    HB19473   2.261   6.541   2.539
  165POPC    C219474   2.186   6.587   2.738
  165POPC    HS19475   2.094   6.607   2.680
  165POPC   O2119476   2.214   6.697   2.826
  165POPC   C2119477   2.199   6.819   2.775
  165POPC   O2219478   2.126   6.848   2.682
  165POPC   C2219479   2.276   6.914   2.867
  165POPC   H2R19480   2.242   7.017   2.844
  165POPC   H2S19481   2.384   6.905   2.841
  165POPC    C319482   2.160   6.462   2.827
  165POPC    HX19483   2.128   6.379   2.760
  165POPC    HY19484   2.074   6.484   2.895
  165POPC   O3119485   2.279   6.421   2.897
  165POPC   C3119486   2.288   6.448   3.027
  165POPC   O3219487   2.197   6.481   3.101
  165POPC   C3219488   2.434   6.430   3.070
  165POPC   H2X19489   2.477   6.348   3.009
  165POPC   H2Y19490   2.437   6.401   3.177
  165POPC   C2319491   2.250   6.875   3.014
  165POPC   H3R19492   2.307   6.784   3.040
  165POPC   H3S19493   2.142   6.850   3.026
  165POPC   C2419494   2.280   6.984   3.118
  165POPC   H4R19495   2.238   7.081   3.083
  165POPC   H4S19496   2.389   7.000   3.129
  165POPC   C2519497   2.216   6.948   3.253
  165POPC   H5R19498   2.275   6.870   3.305
  165POPC   H5S19499   2.116   6.903   3.233
  165POPC   C2619500   2.191   7.069   3.344
  165POPC   H6R19501   2.099   7.052   3.403
  165POPC   H6S19502   2.171   7.157   3.280
  165POPC   C2719503   2.306   7.100   3.441
  165POPC   H7R19504   2.302   7.210   3.461
  165POPC   H7S19505   2.403   7.079   3.392
  165POPC   C2819506   2.296   7.031   3.579
  165POPC   H8R19507   2.203   7.062   3.630
  165POPC   H8S19508   2.379   7.073   3.641
  165POPC   C2919509   2.311   6.881   3.582
  165POPC   H9119510   2.410   6.851   3.611
  165POPC  C21019511   2.222   6.781   3.575
  165POPC  H10119512   2.258   6.677   3.584
  165POPC  C21119513   2.075   6.794   3.564
  165POPC  H11R19514   2.035   6.721   3.492
  165POPC  H11S19515   2.046   6.892   3.522
  165POPC  C21219516   2.014   6.771   3.704
  165POPC  H12R19517   2.015   6.661   3.723
  165POPC  H12S19518   1.908   6.805   3.703
  165POPC  C21319519   2.085   6.830   3.828
  165POPC  H13R19520   2.080   6.941   3.827
  165POPC  H13S19521   2.192   6.801   3.830
  165POPC  C21419522   2.023   6.772   3.956
  165POPC  H14R19523   2.034   6.662   3.951
  165POPC  H14S19524   1.914   6.788   3.956
  165POPC  C21519525   2.087   6.824   4.084
  165POPC  H15R19526   2.063   6.932   4.099
  165POPC  H15S19527   2.198   6.815   4.071
  165POPC  C21619528   2.047   6.744   4.209
  165POPC  H16R19529   2.050   6.636   4.183
  165POPC  H16S19530   1.943   6.768   4.239
  165POPC  C21719531   2.143   6.765   4.327
  165POPC  H17R19532   2.246   6.782   4.288
  165POPC  H17S19533   2.147   6.671   4.387
  165POPC  C21819534   2.104   6.880   4.420
  165POPC  H18R19535   2.174   6.887   4.506
  165POPC  H18S19536   2.002   6.864   4.461
  165POPC  H18T19537   2.104   6.976   4.366
  165POPC   C3319538   2.517   6.558   3.044
  165POPC   H3X19539   2.476   6.615   2.957
  165POPC   H3Y19540   2.620   6.528   3.015
  165POPC   C3419541   2.529   6.650   3.167
  165POPC   H4X19542   2.586   6.597   3.246
  165POPC   H4Y19543   2.427   6.671   3.207
  165POPC   C3519544   2.598   6.782   3.133
  165POPC   H5X19545   2.540   6.831   3.051
  165POPC   H5Y19546   2.700   6.762   3.093
  165POPC   C3619547   2.606   6.881   3.250
  165POPC   H6X19548   2.502   6.897   3.288
  165POPC   H6Y19549   2.642   6.979   3.213
  165POPC   C3719550   2.695   6.834   3.367
  165POPC   H7X19551   2.768   6.914   3.392
  165POPC   H7Y19552   2.750   6.742   3.340
  165POPC   C3819553   2.608   6.812   3.490
  165POPC   H8X19554   2.538   6.729   3.467
  165POPC   H8Y19555   2.552   6.908   3.498
  165POPC   C3919556   2.679   6.791   3.625
  165POPC   H9X19557   2.723   6.887   3.658
  165POPC   H9Y19558   2.763   6.720   3.610
  165POPC  C31019559   2.591   6.734   3.738
  165POPC  H10X19560   2.515   6.808   3.771
  165POPC  H10Y19561   2.656   6.717   3.826
  165POPC  C31119562   2.520   6.601   3.704
  165POPC  H11X19563   2.597   6.527   3.673
  165POPC  H11Y19564   2.452   6.614   3.617
  165POPC  C31219565   2.439   6.546   3.821
  165POPC  H12X19566   2.365   6.622   3.855
  165POPC  H12Y19567   2.508   6.527   3.907
  165POPC  C31319568   2.366   6.415   3.788
  165POPC  H13X19569   2.441   6.342   3.750
  165POPC  H13Y19570   2.290   6.430   3.707
  165POPC  C31419571   2.299   6.355   3.912
  165POPC  H14X19572   2.374   6.361   3.994
  165POPC  H14Y19573   2.276   6.247   3.893
  165POPC  C31519574   2.172   6.425   3.960
  165POPC  H15X19575   2.091   6.409   3.885
  165POPC  H15Y19576   2.193   6.534   3.966
  165POPC  C31619577   2.123   6.378   4.098
  165POPC  H16X19578   2.201   6.395   4.175
  165POPC  H16Y19579   2.097   6.270   4.096
  165POPC  H16Z19580   2.031   6.432   4.129
  166POPC     N19581   4.880   0.890   2.192
  166POPC   C1219582   4.907   0.745   2.230
  166POPC  H12A19583   4.969   0.744   2.319
  166POPC  H12B19584   4.962   0.698   2.149
  166POPC   C1319585   4.811   0.958   2.306
  166POPC  H13A19586   4.791   1.062   2.286
  166POPC  H13B19587   4.718   0.905   2.327
  166POPC  H13C19588   4.868   0.947   2.398
  166POPC   C1419589   5.007   0.963   2.163
  166POPC  H14A19590   5.056   0.927   2.072
  166POPC  H14B19591   4.990   1.068   2.144
  166POPC  H14C19592   5.082   0.951   2.241
  166POPC   C1519593   4.788   0.899   2.075
  166POPC  H15A19594   4.689   0.862   2.102
  166POPC  H15B19595   4.825   0.842   1.990
  166POPC  H15C19596   4.778   1.002   2.041
  166POPC   C1119597   4.787   0.654   2.268
  166POPC  H11A19598   4.823   0.551   2.290
  166POPC  H11B19599   4.718   0.648   2.181
  166POPC     P19600   4.746   0.694   2.531
  166POPC   O1319601   4.809   0.823   2.570
  166POPC   O1419602   4.813   0.566   2.557
  166POPC   O1219603   4.715   0.707   2.378
  166POPC   O1119604   4.594   0.677   2.579
  166POPC    C119605   4.517   0.586   2.497
  166POPC    HA19606   4.578   0.500   2.457
  166POPC    HB19607   4.476   0.640   2.408
  166POPC    C219608   4.401   0.515   2.573
  166POPC    HS19609   4.337   0.464   2.498
  166POPC   O2119610   4.320   0.608   2.648
  166POPC   C2119611   4.275   0.712   2.580
  166POPC   O2219612   4.248   0.715   2.462
  166POPC   C2219613   4.265   0.830   2.676
  166POPC   H2R19614   4.340   0.815   2.757
  166POPC   H2S19615   4.164   0.831   2.722
  166POPC    C319616   4.457   0.406   2.668
  166POPC    HX19617   4.522   0.337   2.609
  166POPC    HY19618   4.374   0.348   2.710
  166POPC   O3119619   4.524   0.465   2.780
  166POPC   C3119620   4.630   0.404   2.827
  166POPC   O3219621   4.680   0.301   2.785
  166POPC   C3219622   4.671   0.479   2.954
  166POPC   H2X19623   4.692   0.397   3.025
  166POPC   H2Y19624   4.586   0.538   2.993
  166POPC   C2319625   4.295   0.964   2.604
  166POPC   H3R19626   4.221   0.980   2.522
  166POPC   H3S19627   4.395   0.956   2.555
  166POPC   C2419628   4.297   1.087   2.696
  166POPC   H4R19629   4.194   1.108   2.732
  166POPC   H4S19630   4.330   1.176   2.636
  166POPC   C2519631   4.390   1.074   2.817
  166POPC   H5R19632   4.347   1.000   2.888
  166POPC   H5S19633   4.395   1.173   2.868
  166POPC   C2619634   4.533   1.032   2.783
  166POPC   H6R19635   4.574   1.109   2.714
  166POPC   H6S19636   4.536   0.934   2.730
  166POPC   C2719637   4.624   1.023   2.906
  166POPC   H7R19638   4.617   1.118   2.963
  166POPC   H7S19639   4.728   1.012   2.868
  166POPC   C2819640   4.595   0.902   2.998
  166POPC   H8R19641   4.609   0.810   2.938
  166POPC   H8S19642   4.489   0.904   3.032
  166POPC   C2919643   4.691   0.904   3.114
  166POPC   H9119644   4.795   0.927   3.084
  166POPC  C21019645   4.668   0.873   3.243
  166POPC  H10119646   4.754   0.875   3.312
  166POPC  C21119647   4.539   0.829   3.309
  166POPC  H11R19648   4.552   0.732   3.362
  166POPC  H11S19649   4.459   0.812   3.233
  166POPC  C21219650   4.493   0.935   3.409
  166POPC  H12R19651   4.393   0.908   3.449
  166POPC  H12S19652   4.483   1.029   3.351
  166POPC  C21319653   4.588   0.965   3.527
  166POPC  H13R19654   4.547   1.050   3.586
  166POPC  H13S19655   4.686   0.998   3.486
  166POPC  C21419656   4.615   0.848   3.624
  166POPC  H14R19657   4.695   0.879   3.695
  166POPC  H14S19658   4.655   0.764   3.564
  166POPC  C21519659   4.494   0.800   3.707
  166POPC  H15R19660   4.518   0.701   3.751
  166POPC  H15S19661   4.407   0.786   3.640
  166POPC  C21619662   4.458   0.895   3.823
  166POPC  H16R19663   4.433   0.994   3.778
  166POPC  H16S19664   4.546   0.910   3.889
  166POPC  C21719665   4.337   0.850   3.908
  166POPC  H17R19666   4.262   0.807   3.840
  166POPC  H17S19667   4.293   0.942   3.954
  166POPC  C21819668   4.365   0.749   4.019
  166POPC  H18R19669   4.383   0.648   3.976
  166POPC  H18S19670   4.278   0.741   4.087
  166POPC  H18T19671   4.454   0.779   4.078
  166POPC   C3319672   4.794   0.571   2.930
  166POPC   H3X19673   4.762   0.664   2.877
  166POPC   H3Y19674   4.864   0.521   2.860
  166POPC   C3419675   4.874   0.610   3.057
  166POPC   H4X19676   4.849   0.712   3.088
  166POPC   H4Y19677   4.981   0.611   3.027
  166POPC   C3519678   4.858   0.519   3.180
  166POPC   H5X19679   4.951   0.524   3.241
  166POPC   H5Y19680   4.844   0.413   3.150
  166POPC   C3619681   4.740   0.555   3.271
  166POPC   H6X19682   4.646   0.565   3.212
  166POPC   H6Y19683   4.761   0.651   3.322
  166POPC   C3719684   4.721   0.448   3.376
  166POPC   H7X19685   4.791   0.364   3.356
  166POPC   H7Y19686   4.616   0.412   3.373
  166POPC   C3819687   4.743   0.492   3.518
  166POPC   H8X19688   4.725   0.406   3.587
  166POPC   H8Y19689   4.664   0.566   3.541
  166POPC   C3919690   4.884   0.546   3.544
  166POPC   H9X19691   4.892   0.650   3.507
  166POPC   H9Y19692   4.959   0.483   3.491
  166POPC  C31019693   4.912   0.540   3.694
  166POPC  H10X19694   5.011   0.583   3.719
  166POPC  H10Y19695   4.914   0.432   3.723
  166POPC  C31119696   4.802   0.607   3.775
  166POPC  H11X19697   4.700   0.589   3.735
  166POPC  H11Y19698   4.818   0.717   3.777
  166POPC  C31219699   4.795   0.550   3.915
  166POPC  H12X19700   4.897   0.563   3.957
  166POPC  H12Y19701   4.773   0.441   3.912
  166POPC  C31319702   4.686   0.622   3.992
  166POPC  H13X19703   4.587   0.591   3.951
  166POPC  H13Y19704   4.693   0.732   3.976
  166POPC  C31419705   4.686   0.593   4.141
  166POPC  H14X19706   4.638   0.493   4.156
  166POPC  H14Y19707   4.622   0.671   4.187
  166POPC  C31519708   4.820   0.592   4.214
  166POPC  H15X19709   4.833   0.689   4.267
  166POPC  H15Y19710   4.909   0.583   4.148
  166POPC  C31619711   4.825   0.475   4.309
  166POPC  H16X19712   4.728   0.461   4.362
  166POPC  H16Y19713   4.905   0.497   4.383
  166POPC  H16Z19714   4.849   0.382   4.255
  167POPC     N19715   0.634   3.373   2.250
  167POPC   C1219716   0.495   3.404   2.196
  167POPC  H12A19717   0.426   3.330   2.235
  167POPC  H12B19718   0.499   3.396   2.087
  167POPC   C1319719   0.712   3.302   2.147
  167POPC  H13A19720   0.744   3.370   2.068
  167POPC  H13B19721   0.798   3.253   2.193
  167POPC  H13C19722   0.655   3.223   2.101
  167POPC   C1419723   0.704   3.500   2.286
  167POPC  H14A19724   0.696   3.569   2.204
  167POPC  H14B19725   0.649   3.547   2.367
  167POPC  H14C19726   0.808   3.488   2.311
  167POPC   C1519727   0.628   3.291   2.374
  167POPC  H15A19728   0.610   3.185   2.356
  167POPC  H15B19729   0.554   3.333   2.442
  167POPC  H15C19730   0.724   3.296   2.423
  167POPC   C1119731   0.437   3.542   2.231
  167POPC  H11A19732   0.330   3.544   2.198
  167POPC  H11B19733   0.489   3.622   2.173
  167POPC     P19734   0.337   3.613   2.461
  167POPC   O1319735   0.211   3.598   2.386
  167POPC   O1419736   0.372   3.746   2.513
  167POPC   O1219737   0.455   3.569   2.369
  167POPC   O1119738   0.351   3.500   2.574
  167POPC    C119739   0.468   3.489   2.656
  167POPC    HA19740   0.534   3.580   2.649
  167POPC    HB19741   0.528   3.401   2.625
  167POPC    C219742   0.430   3.471   2.806
  167POPC    HS19743   0.522   3.485   2.867
  167POPC   O2119744   0.377   3.338   2.823
  167POPC   C2119745   0.352   3.302   2.948
  167POPC   O2219746   0.420   3.330   3.044
  167POPC   C2219747   0.222   3.222   2.947
  167POPC   H2R19748   0.240   3.126   2.894
  167POPC   H2S19749   0.147   3.280   2.889
  167POPC    C319750   0.325   3.581   2.845
  167POPC    HX19751   0.234   3.561   2.784
  167POPC    HY19752   0.366   3.679   2.811
  167POPC   O3119753   0.288   3.577   2.985
  167POPC   C3119754   0.305   3.688   3.055
  167POPC   O3219755   0.345   3.795   3.011
  167POPC   C3219756   0.280   3.661   3.202
  167POPC   H2X19757   0.332   3.567   3.229
  167POPC   H2Y19758   0.171   3.647   3.217
  167POPC   C2319759   0.167   3.195   3.088
  167POPC   H3R19760   0.237   3.135   3.150
  167POPC   H3S19761   0.073   3.136   3.078
  167POPC   C2419762   0.140   3.321   3.168
  167POPC   H4R19763   0.066   3.386   3.117
  167POPC   H4S19764   0.233   3.381   3.182
  167POPC   C2519765   0.092   3.280   3.306
  167POPC   H5R19766   0.177   3.231   3.360
  167POPC   H5S19767   0.012   3.203   3.295
  167POPC   C2619768   0.036   3.396   3.386
  167POPC   H6R19769  -0.046   3.443   3.327
  167POPC   H6S19770   0.111   3.476   3.404
  167POPC   C2719771  -0.021   3.345   3.518
  167POPC   H7R19772  -0.092   3.262   3.494
  167POPC   H7S19773  -0.081   3.428   3.562
  167POPC   C2819774   0.084   3.294   3.618
  167POPC   H8R19775   0.158   3.231   3.567
  167POPC   H8S19776   0.037   3.227   3.694
  167POPC   C2919777   0.148   3.411   3.688
  167POPC   H9119778   0.088   3.461   3.766
  167POPC  C21019779   0.266   3.463   3.651
  167POPC  H10119780   0.304   3.548   3.708
  167POPC  C21119781   0.355   3.416   3.539
  167POPC  H11R19782   0.310   3.445   3.441
  167POPC  H11S19783   0.361   3.305   3.537
  167POPC  C21219784   0.499   3.473   3.540
  167POPC  H12R19785   0.509   3.583   3.549
  167POPC  H12S19786   0.542   3.449   3.439
  167POPC  C21319787   0.582   3.414   3.653
  167POPC  H13R19788   0.688   3.404   3.624
  167POPC  H13S19789   0.539   3.314   3.667
  167POPC  C21419790   0.574   3.492   3.786
  167POPC  H14R19791   0.588   3.421   3.871
  167POPC  H14S19792   0.475   3.537   3.801
  167POPC  C21519793   0.683   3.598   3.800
  167POPC  H15R19794   0.643   3.694   3.763
  167POPC  H15S19795   0.771   3.571   3.737
  167POPC  C21619796   0.729   3.617   3.945
  167POPC  H16R19797   0.642   3.597   4.010
  167POPC  H16S19798   0.753   3.724   3.962
  167POPC  C21719799   0.852   3.531   3.982
  167POPC  H17R19800   0.940   3.599   3.989
  167POPC  H17S19801   0.872   3.459   3.900
  167POPC  C21819802   0.841   3.453   4.112
  167POPC  H18R19803   0.774   3.364   4.099
  167POPC  H18S19804   0.800   3.517   4.193
  167POPC  H18T19805   0.940   3.416   4.146
  167POPC   C3319806   0.334   3.778   3.287
  167POPC   H3X19807   0.281   3.873   3.262
  167POPC   H3Y19808   0.443   3.792   3.266
  167POPC   C3419809   0.318   3.749   3.435
  167POPC   H4X19810   0.360   3.649   3.447
  167POPC   H4Y19811   0.211   3.739   3.463
  167POPC   C3519812   0.391   3.849   3.525
  167POPC   H5X19813   0.339   3.945   3.518
  167POPC   H5Y19814   0.496   3.863   3.489
  167POPC   C3619815   0.396   3.811   3.674
  167POPC   H6X19816   0.450   3.891   3.729
  167POPC   H6Y19817   0.454   3.718   3.684
  167POPC   C3719818   0.258   3.792   3.737
  167POPC   H7X19819   0.198   3.719   3.678
  167POPC   H7Y19820   0.203   3.888   3.731
  167POPC   C3819821   0.266   3.745   3.883
  167POPC   H8X19822   0.342   3.665   3.894
  167POPC   H8Y19823   0.169   3.701   3.914
  167POPC   C3919824   0.301   3.864   3.974
  167POPC   H9X19825   0.229   3.946   3.953
  167POPC   H9Y19826   0.402   3.900   3.946
  167POPC  C31019827   0.300   3.833   4.124
  167POPC  H10X19828   0.201   3.792   4.155
  167POPC  H10Y19829   0.317   3.928   4.179
  167POPC  C31119830   0.413   3.735   4.159
  167POPC  H11X19831   0.507   3.772   4.112
  167POPC  H11Y19832   0.389   3.638   4.112
  167POPC  C31219833   0.439   3.717   4.309
  167POPC  H12X19834   0.350   3.668   4.356
  167POPC  H12Y19835   0.453   3.815   4.358
  167POPC  C31319836   0.563   3.629   4.332
  167POPC  H13X19837   0.580   3.615   4.441
  167POPC  H13Y19838   0.652   3.679   4.289
  167POPC  C31419839   0.544   3.493   4.264
  167POPC  H14X19840   0.580   3.493   4.160
  167POPC  H14Y19841   0.435   3.481   4.252
  167POPC  C31519842   0.600   3.368   4.334
  167POPC  H15X19843   0.598   3.379   4.445
  167POPC  H15Y19844   0.706   3.354   4.306
  167POPC  C31619845   0.521   3.244   4.292
  167POPC  H16X19846   0.467   3.263   4.196
  167POPC  H16Y19847   0.448   3.215   4.369
  167POPC  H16Z19848   0.587   3.158   4.277
  168POPC     N19849   1.686   6.672   2.250
  168POPC   C1219850   1.815   6.661   2.330
  168POPC  H12A19851   1.836   6.758   2.372
  168POPC  H12B19852   1.897   6.636   2.264
  168POPC   C1319853   1.571   6.683   2.345
  168POPC  H13A19854   1.554   6.585   2.391
  168POPC  H13B19855   1.591   6.753   2.424
  168POPC  H13C19856   1.480   6.710   2.292
  168POPC   C1419857   1.688   6.793   2.163
  168POPC  H14A19858   1.588   6.812   2.121
  168POPC  H14B19859   1.712   6.880   2.222
  168POPC  H14C19860   1.758   6.787   2.080
  168POPC   C1519861   1.662   6.545   2.174
  168POPC  H15A19862   1.736   6.521   2.100
  168POPC  H15B19863   1.563   6.541   2.130
  168POPC  H15C19864   1.665   6.460   2.244
  168POPC   C1119865   1.823   6.558   2.445
  168POPC  H11A19866   1.744   6.577   2.521
  168POPC  H11B19867   1.921   6.570   2.497
  168POPC     P19868   1.713   6.316   2.429
  168POPC   O1319869   1.753   6.253   2.556
  168POPC   O1419870   1.675   6.236   2.310
  168POPC   O1219871   1.818   6.427   2.388
  168POPC   O1119872   1.585   6.406   2.461
  168POPC    C119873   1.472   6.332   2.511
  168POPC    HA19874   1.503   6.255   2.586
  168POPC    HB19875   1.420   6.281   2.428
  168POPC    C219876   1.375   6.424   2.587
  168POPC    HS19877   1.351   6.511   2.521
  168POPC   O2119878   1.442   6.467   2.707
  168POPC   C2119879   1.390   6.572   2.767
  168POPC   O2219880   1.284   6.625   2.738
  168POPC   C2219881   1.495   6.633   2.859
  168POPC   H2R19882   1.484   6.743   2.854
  168POPC   H2S19883   1.595   6.605   2.820
  168POPC    C319884   1.243   6.348   2.619
  168POPC    HX19885   1.190   6.326   2.524
  168POPC    HY19886   1.179   6.414   2.679
  168POPC   O3119887   1.272   6.224   2.687
  168POPC   C3119888   1.296   6.241   2.817
  168POPC   O3219889   1.250   6.328   2.888
  168POPC   C3219890   1.404   6.143   2.857
  168POPC   H2X19891   1.452   6.103   2.765
  168POPC   H2Y19892   1.353   6.062   2.911
  168POPC   C2319893   1.482   6.586   3.005
  168POPC   H3R19894   1.573   6.617   3.061
  168POPC   H3S19895   1.478   6.475   3.008
  168POPC   C2419896   1.359   6.642   3.075
  168POPC   H4R19897   1.267   6.590   3.039
  168POPC   H4S19898   1.348   6.750   3.051
  168POPC   C2519899   1.368   6.628   3.227
  168POPC   H5R19900   1.280   6.679   3.269
  168POPC   H5S19901   1.458   6.679   3.266
  168POPC   C2619902   1.371   6.484   3.277
  168POPC   H6R19903   1.456   6.428   3.230
  168POPC   H6S19904   1.277   6.434   3.245
  168POPC   C2719905   1.385   6.476   3.429
  168POPC   H7R19906   1.321   6.555   3.475
  168POPC   H7S19907   1.490   6.497   3.460
  168POPC   C2819908   1.339   6.341   3.484
  168POPC   H8R19909   1.236   6.325   3.446
  168POPC   H8S19910   1.332   6.354   3.595
  168POPC   C2919911   1.423   6.222   3.445
  168POPC   H9119912   1.473   6.229   3.347
  168POPC  C21019913   1.434   6.110   3.517
  168POPC  H10119914   1.492   6.026   3.477
  168POPC  C21119915   1.366   6.087   3.649
  168POPC  H11R19916   1.290   6.007   3.640
  168POPC  H11S19917   1.309   6.177   3.680
  168POPC  C21219918   1.454   6.052   3.770
  168POPC  H12R19919   1.533   6.129   3.782
  168POPC  H12S19920   1.501   5.952   3.756
  168POPC  C21319921   1.363   6.050   3.893
  168POPC  H13R19922   1.292   5.964   3.883
  168POPC  H13S19923   1.304   6.144   3.892
  168POPC  C21419924   1.431   6.047   4.029
  168POPC  H14R19925   1.494   5.956   4.040
  168POPC  H14S19926   1.349   6.042   4.104
  168POPC  C21519927   1.511   6.174   4.061
  168POPC  H15R19928   1.449   6.264   4.041
  168POPC  H15S19929   1.600   6.178   3.995
  168POPC  C21619930   1.552   6.171   4.208
  168POPC  H16R19931   1.581   6.067   4.231
  168POPC  H16S19932   1.464   6.199   4.270
  168POPC  C21719933   1.673   6.256   4.247
  168POPC  H17R19934   1.676   6.266   4.358
  168POPC  H17S19935   1.659   6.357   4.205
  168POPC  C21819936   1.805   6.195   4.200
  168POPC  H18R19937   1.803   6.175   4.091
  168POPC  H18S19938   1.824   6.098   4.252
  168POPC  H18T19939   1.890   6.264   4.222
  168POPC   C3319940   1.515   6.205   2.945
  168POPC   H3X19941   1.471   6.282   3.012
  168POPC   H3Y19942   1.591   6.254   2.880
  168POPC   C3419943   1.579   6.102   3.037
  168POPC   H4X19944   1.596   6.009   2.978
  168POPC   H4Y19945   1.508   6.079   3.120
  168POPC   C3519946   1.715   6.144   3.093
  168POPC   H5X19947   1.790   6.126   3.012
  168POPC   H5Y19948   1.742   6.078   3.178
  168POPC   C3619949   1.735   6.288   3.141
  168POPC   H6X19950   1.670   6.313   3.227
  168POPC   H6Y19951   1.710   6.359   3.058
  168POPC   C3719952   1.884   6.305   3.178
  168POPC   H7X19953   1.927   6.396   3.131
  168POPC   H7Y19954   1.941   6.219   3.136
  168POPC   C3819955   1.909   6.304   3.329
  168POPC   H8X19956   1.977   6.221   3.358
  168POPC   H8Y19957   1.813   6.282   3.381
  168POPC   C3919958   1.969   6.434   3.380
  168POPC   H9X19959   1.927   6.520   3.324
  168POPC   H9Y19960   2.079   6.433   3.360
  168POPC  C31019961   1.940   6.451   3.529
  168POPC  H10X19962   2.004   6.533   3.567
  168POPC  H10Y19963   1.971   6.359   3.583
  168POPC  C31119964   1.791   6.481   3.554
  168POPC  H11X19965   1.731   6.389   3.533
  168POPC  H11Y19966   1.759   6.557   3.479
  168POPC  C31219967   1.753   6.528   3.695
  168POPC  H12X19968   1.646   6.562   3.692
  168POPC  H12Y19969   1.813   6.615   3.724
  168POPC  C31319970   1.764   6.416   3.798
  168POPC  H13X19971   1.860   6.362   3.781
  168POPC  H13Y19972   1.682   6.343   3.778
  168POPC  C31419973   1.762   6.456   3.947
  168POPC  H14X19974   1.867   6.474   3.980
  168POPC  H14Y19975   1.724   6.369   4.003
  168POPC  C31519976   1.681   6.581   3.985
  168POPC  H15X19977   1.575   6.569   3.956
  168POPC  H15Y19978   1.723   6.666   3.926
  168POPC  C31619979   1.691   6.620   4.133
  168POPC  H16X19980   1.628   6.555   4.197
  168POPC  H16Y19981   1.658   6.724   4.149
  168POPC  H16Z19982   1.796   6.612   4.169
  169POPC     N19983   7.101   2.608   2.156
  169POPC   C1219984   7.006   2.499   2.208
  169POPC  H12A19985   7.066   2.423   2.259
  169POPC  H12B19986   6.956   2.449   2.127
  169POPC   C1319987   7.027   2.737   2.145
  169POPC  H13A19988   6.955   2.734   2.065
  169POPC  H13B19989   6.976   2.757   2.239
  169POPC  H13C19990   7.095   2.820   2.128
  169POPC   C1419991   7.209   2.626   2.255
  169POPC  H14A19992   7.262   2.532   2.276
  169POPC  H14B19993   7.281   2.701   2.226
  169POPC  H14C19994   7.165   2.654   2.350
  169POPC   C1519995   7.168   2.573   2.027
  169POPC  H15A19996   7.229   2.483   2.036
  169POPC  H15B19997   7.237   2.652   1.998
  169POPC  H15C19998   7.098   2.557   1.947
  169POPC   C1119999   6.896   2.541   2.312
  169POPC  H11A20000   6.840   2.450   2.344
  169POPC  H11B20001   6.821   2.607   2.264
  169POPC     P20002   7.017   2.531   2.543
  169POPC   O1320003   7.123   2.445   2.486
  169POPC   O1420004   6.911   2.469   2.625
  169POPC   O1220005   6.953   2.611   2.422
  169POPC   O1120006   7.086   2.649   2.622
  169POPC    C120007   7.181   2.729   2.550
  169POPC    HA20008   7.131   2.789   2.470
  169POPC    HB20009   7.260   2.665   2.505
  169POPC    C220010   7.254   2.829   2.642
  169POPC    HS20011   7.349   2.863   2.593
  169POPC   O2120012   7.284   2.768   2.768
  169POPC   C2120013   7.352   2.655   2.761
  169POPC   O2220014   7.421   2.616   2.669
  169POPC   C2220015   7.338   2.577   2.888
  169POPC   H2R20016   7.410   2.492   2.884
  169POPC   H2S20017   7.234   2.538   2.893
  169POPC    C320018   7.164   2.955   2.662
  169POPC    HX20019   7.158   3.002   2.562
  169POPC    HY20020   7.211   3.027   2.732
  169POPC   O3120021   7.028   2.924   2.695
  169POPC   C3120022   7.014   2.874   2.815
  169POPC   O3220023   7.088   2.891   2.910
  169POPC   C3220024   6.886   2.791   2.822
  169POPC   H2X20025   6.896   2.704   2.754
  169POPC   H2Y20026   6.804   2.855   2.784
  169POPC   C2320027   7.370   2.669   3.004
  169POPC   H3R20028   7.319   2.767   2.995
  169POPC   H3S20029   7.480   2.689   3.007
  169POPC   C2420030   7.325   2.609   3.134
  169POPC   H4R20031   7.373   2.510   3.149
  169POPC   H4S20032   7.215   2.592   3.135
  169POPC   C2520033   7.366   2.704   3.243
  169POPC   H5R20034   7.470   2.740   3.224
  169POPC   H5S20035   7.368   2.642   3.333
  169POPC   C2620036   7.276   2.827   3.260
  169POPC   H6R20037   7.267   2.883   3.164
  169POPC   H6S20038   7.327   2.894   3.332
  169POPC   C2720039   7.134   2.798   3.311
  169POPC   H7R20040   7.079   2.748   3.230
  169POPC   H7S20041   7.075   2.889   3.334
  169POPC   C2820042   7.130   2.707   3.433
  169POPC   H8R20043   7.193   2.619   3.410
  169POPC   H8S20044   7.027   2.667   3.434
  169POPC   C2920045   7.173   2.759   3.567
  169POPC   H9120046   7.280   2.784   3.576
  169POPC  C21020047   7.092   2.779   3.671
  169POPC  H10120048   7.134   2.814   3.767
  169POPC  C21120049   6.945   2.752   3.671
  169POPC  H11R20050   6.904   2.719   3.574
  169POPC  H11S20051   6.905   2.853   3.686
  169POPC  C21220052   6.884   2.662   3.779
  169POPC  H12R20053   6.955   2.594   3.827
  169POPC  H12S20054   6.806   2.598   3.732
  169POPC  C21320055   6.819   2.751   3.884
  169POPC  H13R20056   6.772   2.838   3.836
  169POPC  H13S20057   6.898   2.793   3.950
  169POPC  C21420058   6.707   2.685   3.962
  169POPC  H14R20059   6.653   2.609   3.901
  169POPC  H14S20060   6.633   2.764   3.989
  169POPC  C21520061   6.765   2.626   4.089
  169POPC  H15R20062   6.850   2.689   4.123
  169POPC  H15S20063   6.803   2.524   4.067
  169POPC  C21620064   6.664   2.626   4.201
  169POPC  H16R20065   6.565   2.594   4.162
  169POPC  H16S20066   6.652   2.730   4.240
  169POPC  C21720067   6.711   2.532   4.311
  169POPC  H17R20068   6.816   2.559   4.338
  169POPC  H17S20069   6.712   2.429   4.269
  169POPC  C21820070   6.623   2.536   4.435
  169POPC  H18R20071   6.518   2.513   4.408
  169POPC  H18S20072   6.626   2.637   4.481
  169POPC  H18T20073   6.658   2.461   4.510
  169POPC   C3320074   6.853   2.741   2.965
  169POPC   H3X20075   6.751   2.699   2.961
  169POPC   H3Y20076   6.854   2.827   3.037
  169POPC   C3420077   6.935   2.625   3.023
  169POPC   H4X20078   7.034   2.663   3.052
  169POPC   H4Y20079   6.950   2.547   2.945
  169POPC   C3520080   6.858   2.564   3.144
  169POPC   H5X20081   6.769   2.512   3.105
  169POPC   H5Y20082   6.823   2.649   3.207
  169POPC   C3620083   6.938   2.469   3.235
  169POPC   H6X20084   7.031   2.522   3.265
  169POPC   H6Y20085   6.969   2.380   3.177
  169POPC   C3720086   6.858   2.428   3.361
  169POPC   H7X20087   6.769   2.370   3.327
  169POPC   H7Y20088   6.820   2.521   3.410
  169POPC   C3820089   6.934   2.345   3.468
  169POPC   H8X20090   6.968   2.253   3.418
  169POPC   H8Y20091   6.864   2.316   3.549
  169POPC   C3920092   7.054   2.423   3.530
  169POPC   H9X20093   7.012   2.514   3.576
  169POPC   H9Y20094   7.117   2.447   3.442
  169POPC  C31020095   7.153   2.363   3.632
  169POPC  H10X20096   7.191   2.270   3.592
  169POPC  H10Y20097   7.105   2.338   3.729
  169POPC  C31120098   7.284   2.445   3.651
  169POPC  H11X20099   7.275   2.542   3.603
  169POPC  H11Y20100   7.365   2.395   3.594
  169POPC  C31220101   7.331   2.463   3.797
  169POPC  H12X20102   7.437   2.496   3.798
  169POPC  H12Y20103   7.324   2.366   3.850
  169POPC  C31320104   7.247   2.568   3.872
  169POPC  H13X20105   7.146   2.560   3.828
  169POPC  H13Y20106   7.286   2.670   3.851
  169POPC  C31420107   7.233   2.545   4.023
  169POPC  H14X20108   7.330   2.566   4.074
  169POPC  H14Y20109   7.206   2.439   4.041
  169POPC  C31520110   7.123   2.634   4.084
  169POPC  H15X20111   7.027   2.602   4.038
  169POPC  H15Y20112   7.140   2.740   4.055
  169POPC  C31620113   7.111   2.623   4.236
  169POPC  H16X20114   7.206   2.653   4.285
  169POPC  H16Y20115   7.087   2.519   4.266
  169POPC  H16Z20116   7.030   2.689   4.274
  170POPC     N20117   0.922   1.927   2.208
  170POPC   C1220118   0.780   1.966   2.174
  170POPC  H12A20119   0.737   1.892   2.107
  170POPC  H12B20120   0.782   2.060   2.121
  170POPC   C1320121   1.002   2.046   2.256
  170POPC  H13A20122   1.004   2.123   2.179
  170POPC  H13B20123   0.952   2.090   2.342
  170POPC  H13C20124   1.105   2.022   2.281
  170POPC   C1420125   0.918   1.828   2.320
  170POPC  H14A20126   0.861   1.875   2.400
  170POPC  H14B20127   0.864   1.739   2.291
  170POPC  H14C20128   1.017   1.804   2.356
  170POPC   C1520129   0.988   1.870   2.088
  170POPC  H15A20130   1.086   1.831   2.112
  170POPC  H15B20131   0.997   1.944   2.008
  170POPC  H15C20132   0.932   1.786   2.048
  170POPC   C1120133   0.686   1.981   2.295
  170POPC  H11A20134   0.664   1.883   2.343
  170POPC  H11B20135   0.587   2.018   2.257
  170POPC     P20136   0.668   2.193   2.438
  170POPC   O1320137   0.552   2.142   2.513
  170POPC   O1420138   0.642   2.269   2.313
  170POPC   O1220139   0.748   2.067   2.391
  170POPC   O1120140   0.768   2.270   2.533
  170POPC    C120141   0.868   2.205   2.614
  170POPC    HA20142   0.893   2.272   2.699
  170POPC    HB20143   0.961   2.190   2.555
  170POPC    C220144   0.822   2.069   2.676
  170POPC    HS20145   0.788   2.002   2.594
  170POPC   O2120146   0.716   2.097   2.769
  170POPC   C2120147   0.624   2.001   2.774
  170POPC   O2220148   0.637   1.887   2.734
  170POPC   C2220149   0.494   2.058   2.834
  170POPC   H2R20150   0.419   1.977   2.830
  170POPC   H2S20151   0.461   2.139   2.765
  170POPC    C320152   0.936   1.988   2.745
  170POPC    HX20153   1.014   1.971   2.667
  170POPC    HY20154   0.896   1.887   2.772
  170POPC   O3120155   0.996   2.056   2.856
  170POPC   C3120156   0.941   2.030   2.974
  170POPC   O3220157   0.853   1.948   2.995
  170POPC   C3220158   1.004   2.120   3.079
  170POPC   H2X20159   0.922   2.183   3.120
  170POPC   H2Y20160   1.077   2.186   3.028
  170POPC   C2320161   0.507   2.111   2.979
  170POPC   H3R20162   0.418   2.173   3.003
  170POPC   H3S20163   0.597   2.175   2.990
  170POPC   C2420164   0.514   1.994   3.076
  170POPC   H4R20165   0.591   1.924   3.037
  170POPC   H4S20166   0.417   1.938   3.078
  170POPC   C2520167   0.555   2.030   3.219
  170POPC   H5R20168   0.470   2.073   3.276
  170POPC   H5S20169   0.637   2.106   3.217
  170POPC   C2620170   0.607   1.903   3.286
  170POPC   H6R20171   0.690   1.863   3.223
  170POPC   H6S20172   0.526   1.828   3.286
  170POPC   C2720173   0.661   1.921   3.427
  170POPC   H7R20174   0.727   2.010   3.432
  170POPC   H7S20175   0.724   1.832   3.449
  170POPC   C2820176   0.551   1.933   3.533
  170POPC   H8R20177   0.477   1.853   3.516
  170POPC   H8S20178   0.497   2.029   3.521
  170POPC   C2920179   0.614   1.918   3.668
  170POPC   H9120180   0.615   1.817   3.711
  170POPC  C21020181   0.670   2.019   3.736
  170POPC  H10120182   0.716   1.999   3.834
  170POPC  C21120183   0.677   2.161   3.688
  170POPC  H11R20184   0.683   2.170   3.577
  170POPC  H11S20185   0.766   2.211   3.731
  170POPC  C21220186   0.554   2.237   3.738
  170POPC  H12R20187   0.460   2.194   3.699
  170POPC  H12S20188   0.561   2.342   3.699
  170POPC  C21320189   0.552   2.242   3.891
  170POPC  H13R20190   0.647   2.198   3.930
  170POPC  H13S20191   0.466   2.184   3.932
  170POPC  C21420192   0.549   2.386   3.938
  170POPC  H14R20193   0.451   2.426   3.903
  170POPC  H14S20194   0.631   2.441   3.887
  170POPC  C21520195   0.564   2.409   4.088
  170POPC  H15R20196   0.493   2.344   4.143
  170POPC  H15S20197   0.535   2.514   4.105
  170POPC  C21620198   0.706   2.385   4.138
  170POPC  H16R20199   0.780   2.437   4.075
  170POPC  H16S20200   0.725   2.276   4.128
  170POPC  C21720201   0.729   2.419   4.286
  170POPC  H17R20202   0.654   2.492   4.322
  170POPC  H17S20203   0.830   2.463   4.297
  170POPC  C21820204   0.718   2.296   4.374
  170POPC  H18R20205   0.628   2.239   4.345
  170POPC  H18S20206   0.709   2.322   4.481
  170POPC  H18T20207   0.808   2.232   4.360
  170POPC   C3320208   1.073   2.043   3.194
  170POPC   H3X20209   1.133   2.114   3.255
  170POPC   H3Y20210   1.145   1.968   3.154
  170POPC   C3420211   0.971   1.976   3.287
  170POPC   H4X20212   0.919   1.896   3.229
  170POPC   H4Y20213   0.895   2.052   3.314
  170POPC   C3520214   1.028   1.911   3.414
  170POPC   H5X20215   1.130   1.873   3.395
  170POPC   H5Y20216   0.962   1.825   3.440
  170POPC   C3620217   1.030   2.006   3.534
  170POPC   H6X20218   0.942   2.075   3.528
  170POPC   H6Y20219   1.122   2.067   3.531
  170POPC   C3720220   1.021   1.936   3.671
  170POPC   H7X20221   1.107   1.866   3.682
  170POPC   H7Y20222   0.927   1.878   3.678
  170POPC   C3820223   1.024   2.043   3.780
  170POPC   H8X20224   0.922   2.084   3.795
  170POPC   H8Y20225   1.088   2.126   3.745
  170POPC   C3920226   1.083   2.003   3.914
  170POPC   H9X20227   1.192   1.990   3.899
  170POPC   H9Y20228   1.043   1.907   3.952
  170POPC  C31020229   1.064   2.118   4.013
  170POPC  H10X20230   1.087   2.213   3.960
  170POPC  H10Y20231   1.139   2.112   4.094
  170POPC  C31120232   0.922   2.129   4.071
  170POPC  H11X20233   0.861   2.184   3.997
  170POPC  H11Y20234   0.928   2.191   4.163
  170POPC  C31220235   0.848   1.996   4.103
  170POPC  H12X20236   0.907   1.940   4.178
  170POPC  H12Y20237   0.842   1.934   4.010
  170POPC  C31320238   0.704   2.017   4.153
  170POPC  H13X20239   0.643   2.067   4.075
  170POPC  H13Y20240   0.709   2.083   4.241
  170POPC  C31420241   0.627   1.892   4.194
  170POPC  H14X20242   0.682   1.844   4.277
  170POPC  H14Y20243   0.633   1.818   4.113
  170POPC  C31520244   0.478   1.917   4.232
  170POPC  H15X20245   0.437   1.823   4.274
  170POPC  H15Y20246   0.421   1.940   4.140
  170POPC  C31620247   0.446   2.033   4.327
  170POPC  H16X20248   0.431   2.126   4.269
  170POPC  H16Y20249   0.527   2.051   4.401
  170POPC  H16Z20250   0.352   2.013   4.384
  171POPC     N20251   3.259   0.081   2.400
  171POPC   C1220252   3.297   0.228   2.381
  171POPC  H12A20253   3.376   0.235   2.307
  171POPC  H12B20254   3.339   0.265   2.474
  171POPC   C1320255   3.193   0.026   2.278
  171POPC  H13A20256   3.179  -0.082   2.282
  171POPC  H13B20257   3.094   0.072   2.273
  171POPC  H13C20258   3.243   0.058   2.189
  171POPC   C1420259   3.378  -0.000   2.437
  171POPC  H14A20260   3.352  -0.105   2.445
  171POPC  H14B20261   3.461   0.011   2.368
  171POPC  H14C20262   3.414   0.034   2.534
  171POPC   C1520263   3.159   0.065   2.509
  171POPC  H15A20264   3.197   0.098   2.604
  171POPC  H15B20265   3.128  -0.039   2.514
  171POPC  H15C20266   3.070   0.124   2.486
  171POPC   C1120267   3.187   0.329   2.335
  171POPC  H11A20268   3.239   0.424   2.310
  171POPC  H11B20269   3.126   0.352   2.425
  171POPC     P20270   2.949   0.287   2.235
  171POPC   O1320271   2.882   0.203   2.132
  171POPC   O1420272   2.905   0.427   2.251
  171POPC   O1220273   3.108   0.285   2.222
  171POPC   O1120274   2.941   0.205   2.370
  171POPC    C120275   2.821   0.219   2.445
  171POPC    HA20276   2.797   0.121   2.491
  171POPC    HB20277   2.737   0.247   2.379
  171POPC    C220278   2.824   0.326   2.557
  171POPC    HS20279   2.772   0.418   2.520
  171POPC   O2120280   2.961   0.357   2.583
  171POPC   C2120281   2.989   0.439   2.680
  171POPC   O2220282   2.913   0.497   2.753
  171POPC   C2220283   3.138   0.444   2.702
  171POPC   H2R20284   3.169   0.550   2.708
  171POPC   H2S20285   3.192   0.395   2.619
  171POPC    C320286   2.746   0.269   2.680
  171POPC    HX20287   2.643   0.254   2.641
  171POPC    HY20288   2.737   0.344   2.761
  171POPC   O3120289   2.805   0.146   2.733
  171POPC   C3120290   2.715   0.072   2.798
  171POPC   O3220291   2.595   0.079   2.784
  171POPC   C3220292   2.780  -0.015   2.907
  171POPC   H2X20293   2.888  -0.018   2.890
  171POPC   H2Y20294   2.740  -0.118   2.898
  171POPC   C2320295   3.164   0.372   2.835
  171POPC   H3R20296   3.134   0.437   2.920
  171POPC   H3S20297   3.273   0.354   2.842
  171POPC   C2420298   3.082   0.241   2.842
  171POPC   H4R20299   3.101   0.181   2.751
  171POPC   H4S20300   2.973   0.264   2.847
  171POPC   C2520301   3.106   0.156   2.965
  171POPC   H5R20302   3.052   0.060   2.958
  171POPC   H5S20303   3.064   0.210   3.053
  171POPC   C2620304   3.253   0.126   2.982
  171POPC   H6R20305   3.309   0.150   2.889
  171POPC   H6S20306   3.270   0.018   3.004
  171POPC   C2720307   3.302   0.210   3.098
  171POPC   H7R20308   3.264   0.315   3.088
  171POPC   H7S20309   3.412   0.217   3.090
  171POPC   C2820310   3.255   0.153   3.231
  171POPC   H8R20311   3.259   0.042   3.232
  171POPC   H8S20312   3.150   0.183   3.253
  171POPC   C2920313   3.356   0.212   3.323
  171POPC   H9120314   3.451   0.158   3.327
  171POPC  C21020315   3.341   0.320   3.400
  171POPC  H10120316   3.423   0.348   3.466
  171POPC  C21120317   3.223   0.408   3.418
  171POPC  H11R20318   3.134   0.379   3.358
  171POPC  H11S20319   3.246   0.515   3.397
  171POPC  C21220320   3.203   0.378   3.567
  171POPC  H12R20321   3.122   0.447   3.602
  171POPC  H12S20322   3.290   0.401   3.632
  171POPC  C21320323   3.157   0.233   3.587
  171POPC  H13R20324   3.114   0.198   3.490
  171POPC  H13S20325   3.076   0.239   3.662
  171POPC  C21420326   3.250   0.118   3.628
  171POPC  H14R20327   3.325   0.151   3.702
  171POPC  H14S20328   3.304   0.079   3.539
  171POPC  C21520329   3.164   0.004   3.684
  171POPC  H15R20330   3.223  -0.090   3.688
  171POPC  H15S20331   3.076  -0.013   3.618
  171POPC  C21620332   3.120   0.040   3.825
  171POPC  H16R20333   3.077   0.142   3.830
  171POPC  H16S20334   3.212   0.040   3.889
  171POPC  C21720335   3.017  -0.052   3.887
  171POPC  H17R20336   3.055  -0.157   3.886
  171POPC  H17S20337   2.922  -0.052   3.830
  171POPC  C21820338   2.995  -0.000   4.029
  171POPC  H18R20339   2.997  -0.080   4.105
  171POPC  H18S20340   2.899   0.052   4.038
  171POPC  H18T20341   3.072   0.076   4.054
  171POPC   C3320342   2.737   0.049   3.042
  171POPC   H3X20343   2.626   0.054   3.038
  171POPC   H3Y20344   2.780   0.151   3.043
  171POPC   C3420345   2.771  -0.011   3.179
  171POPC   H4X20346   2.874   0.020   3.209
  171POPC   H4Y20347   2.771  -0.123   3.172
  171POPC   C3520348   2.669   0.028   3.293
  171POPC   H5X20349   2.717   0.021   3.392
  171POPC   H5Y20350   2.593  -0.051   3.280
  171POPC   C3620351   2.584   0.159   3.281
  171POPC   H6X20352   2.517   0.131   3.198
  171POPC   H6Y20353   2.653   0.232   3.241
  171POPC   C3720354   2.487   0.210   3.398
  171POPC   H7X20355   2.501   0.139   3.481
  171POPC   H7Y20356   2.386   0.187   3.358
  171POPC   C3820357   2.465   0.356   3.466
  171POPC   H8X20358   2.424   0.330   3.567
  171POPC   H8Y20359   2.380   0.403   3.411
  171POPC   C3920360   2.568   0.474   3.492
  171POPC   H9X20361   2.552   0.539   3.403
  171POPC   H9Y20362   2.671   0.447   3.484
  171POPC  C31020363   2.565   0.575   3.615
  171POPC  H10X20364   2.457   0.602   3.630
  171POPC  H10Y20365   2.613   0.666   3.572
  171POPC  C31120366   2.629   0.569   3.762
  171POPC  H11X20367   2.549   0.522   3.824
  171POPC  H11Y20368   2.631   0.676   3.792
  171POPC  C31220369   2.762   0.510   3.826
  171POPC  H12X20370   2.763   0.401   3.823
  171POPC  H12Y20371   2.746   0.533   3.934
  171POPC  C31320372   2.911   0.556   3.811
  171POPC  H13X20373   2.923   0.657   3.855
  171POPC  H13Y20374   2.940   0.560   3.704
  171POPC  C31420375   3.006   0.456   3.886
  171POPC  H14X20376   3.036   0.377   3.813
  171POPC  H14Y20377   2.948   0.404   3.965
  171POPC  C31520378   3.136   0.506   3.955
  171POPC  H15X20379   3.108   0.558   4.050
  171POPC  H15Y20380   3.189   0.579   3.890
  171POPC  C31620381   3.235   0.392   3.991
  171POPC  H16X20382   3.322   0.430   4.049
  171POPC  H16Y20383   3.275   0.344   3.899
  171POPC  H16Z20384   3.186   0.314   4.053
  172POPC     N20385   1.761   0.999   2.188
  172POPC   C1220386   1.896   1.024   2.254
  172POPC  H12A20387   1.898   1.128   2.283
  172POPC  H12B20388   1.973   1.010   2.179
  172POPC   C1320389   1.745   1.097   2.078
  172POPC  H13A20390   1.839   1.110   2.023
  172POPC  H13B20391   1.668   1.070   2.005
  172POPC  H13C20392   1.720   1.196   2.116
  172POPC   C1420393   1.756   0.861   2.131
  172POPC  H14A20394   1.832   0.847   2.056
  172POPC  H14B20395   1.777   0.791   2.211
  172POPC  H14C20396   1.659   0.836   2.090
  172POPC   C1520397   1.648   1.016   2.285
  172POPC  H15A20398   1.661   1.106   2.344
  172POPC  H15B20399   1.649   0.932   2.355
  172POPC  H15C20400   1.553   1.020   2.234
  172POPC   C1120401   1.939   0.939   2.375
  172POPC  H11A20402   1.866   0.956   2.459
  172POPC  H11B20403   2.036   0.979   2.413
  172POPC     P20404   1.875   0.690   2.413
  172POPC   O1320405   1.935   0.668   2.545
  172POPC   O1420406   1.860   0.573   2.325
  172POPC   O1220407   1.959   0.803   2.337
  172POPC   O1120408   1.736   0.765   2.428
  172POPC    C120409   1.608   0.705   2.414
  172POPC    HA20410   1.611   0.618   2.344
  172POPC    HB20411   1.536   0.778   2.370
  172POPC    C220412   1.550   0.661   2.550
  172POPC    HS20413   1.462   0.596   2.526
  172POPC   O2120414   1.512   0.774   2.629
  172POPC   C2120415   1.385   0.807   2.626
  172POPC   O2220416   1.301   0.750   2.558
  172POPC   C2220417   1.364   0.924   2.723
  172POPC   H2R20418   1.311   0.881   2.810
  172POPC   H2S20419   1.296   0.997   2.674
  172POPC    C320420   1.645   0.572   2.634
  172POPC    HX20421   1.702   0.503   2.567
  172POPC    HY20422   1.574   0.512   2.693
  172POPC   O3120423   1.730   0.646   2.725
  172POPC   C3120424   1.819   0.567   2.789
  172POPC   O3220425   1.826   0.447   2.774
  172POPC   C3220426   1.890   0.648   2.899
  172POPC   H2X20427   1.813   0.708   2.951
  172POPC   H2Y20428   1.962   0.717   2.851
  172POPC   C2320429   1.494   0.996   2.770
  172POPC   H3R20430   1.505   1.086   2.707
  172POPC   H3S20431   1.587   0.938   2.754
  172POPC   C2420432   1.496   1.036   2.919
  172POPC   H4R20433   1.395   1.066   2.953
  172POPC   H4S20434   1.564   1.124   2.927
  172POPC   C2520435   1.553   0.929   3.015
  172POPC   H5R20436   1.647   0.889   2.969
  172POPC   H5S20437   1.482   0.845   3.025
  172POPC   C2620438   1.589   0.986   3.154
  172POPC   H6R20439   1.650   1.078   3.142
  172POPC   H6S20440   1.651   0.910   3.206
  172POPC   C2720441   1.469   1.017   3.245
  172POPC   H7R20442   1.391   0.939   3.228
  172POPC   H7S20443   1.423   1.114   3.217
  172POPC   C2820444   1.503   1.015   3.396
  172POPC   H8R20445   1.533   0.911   3.422
  172POPC   H8S20446   1.409   1.037   3.452
  172POPC   C2920447   1.615   1.107   3.440
  172POPC   H9120448   1.695   1.119   3.366
  172POPC  C21020449   1.627   1.172   3.557
  172POPC  H10120450   1.716   1.235   3.572
  172POPC  C21120451   1.533   1.172   3.676
  172POPC  H11R20452   1.440   1.226   3.647
  172POPC  H11S20453   1.578   1.231   3.759
  172POPC  C21220454   1.489   1.036   3.735
  172POPC  H12R20455   1.429   0.982   3.659
  172POPC  H12S20456   1.421   1.055   3.821
  172POPC  C21320457   1.604   0.944   3.781
  172POPC  H13R20458   1.677   0.934   3.698
  172POPC  H13S20459   1.562   0.843   3.801
  172POPC  C21420460   1.678   0.991   3.908
  172POPC  H14R20461   1.712   1.096   3.897
  172POPC  H14S20462   1.770   0.929   3.919
  172POPC  C21520463   1.596   0.976   4.037
  172POPC  H15R20464   1.549   0.876   4.041
  172POPC  H15S20465   1.513   1.051   4.033
  172POPC  C21620466   1.682   1.000   4.163
  172POPC  H16R20467   1.733   1.096   4.144
  172POPC  H16S20468   1.761   0.923   4.171
  172POPC  C21720469   1.607   1.009   4.299
  172POPC  H17R20470   1.665   1.074   4.368
  172POPC  H17S20471   1.607   0.910   4.348
  172POPC  C21820472   1.464   1.061   4.291
  172POPC  H18R20473   1.421   1.076   4.393
  172POPC  H18S20474   1.401   0.989   4.236
  172POPC  H18T20475   1.462   1.158   4.237
  172POPC   C3320476   1.960   0.555   3.003
  172POPC   H3X20477   2.048   0.506   2.955
  172POPC   H3Y20478   1.890   0.473   3.032
  172POPC   C3420479   2.013   0.627   3.127
  172POPC   H4X20480   1.974   0.731   3.126
  172POPC   H4Y20481   2.124   0.633   3.119
  172POPC   C3520482   1.976   0.563   3.263
  172POPC   H5X20483   2.003   0.455   3.265
  172POPC   H5Y20484   1.866   0.570   3.275
  172POPC   C3620485   2.047   0.637   3.378
  172POPC   H6X20486   2.057   0.744   3.346
  172POPC   H6Y20487   2.150   0.597   3.388
  172POPC   C3720488   1.977   0.641   3.515
  172POPC   H7X20489   1.879   0.692   3.505
  172POPC   H7Y20490   2.042   0.703   3.581
  172POPC   C3820491   1.957   0.505   3.585
  172POPC   H8X20492   2.047   0.443   3.571
  172POPC   H8Y20493   1.871   0.452   3.539
  172POPC   C3920494   1.933   0.521   3.736
  172POPC   H9X20495   2.025   0.563   3.783
  172POPC   H9Y20496   1.917   0.420   3.782
  172POPC  C31020497   1.815   0.612   3.773
  172POPC  H10X20498   1.719   0.565   3.743
  172POPC  H10Y20499   1.824   0.709   3.719
  172POPC  C31120500   1.811   0.646   3.923
  172POPC  H11X20501   1.736   0.726   3.940
  172POPC  H11Y20502   1.910   0.685   3.955
  172POPC  C31220503   1.770   0.529   4.012
  172POPC  H12X20504   1.844   0.446   4.005
  172POPC  H12Y20505   1.673   0.490   3.975
  172POPC  C31320506   1.756   0.573   4.158
  172POPC  H13X20507   1.778   0.682   4.166
  172POPC  H13Y20508   1.835   0.524   4.217
  172POPC  C31420509   1.617   0.544   4.216
  172POPC  H14X20510   1.626   0.513   4.322
  172POPC  H14Y20511   1.573   0.457   4.163
  172POPC  C31520512   1.524   0.667   4.208
  172POPC  H15X20513   1.477   0.671   4.108
  172POPC  H15Y20514   1.590   0.756   4.216
  172POPC  C31620515   1.419   0.681   4.319
  172POPC  H16X20516   1.468   0.704   4.416
  172POPC  H16Y20517   1.360   0.588   4.331
  172POPC  H16Z20518   1.350   0.764   4.295
  173POPC     N20519   6.163   6.547   2.284
  173POPC   C1220520   6.281   6.520   2.377
  173POPC  H12A20521   6.300   6.413   2.384
  173POPC  H12B20522   6.255   6.552   2.478
  173POPC   C1320523   6.123   6.691   2.291
  173POPC  H13A20524   6.043   6.712   2.222
  173POPC  H13B20525   6.092   6.719   2.391
  173POPC  H13C20526   6.211   6.752   2.267
  173POPC   C1420527   6.204   6.519   2.143
  173POPC  H14A20528   6.225   6.414   2.126
  173POPC  H14B20529   6.128   6.552   2.073
  173POPC  H14C20530   6.295   6.574   2.118
  173POPC   C1520531   6.049   6.456   2.316
  173POPC  H15A20532   5.962   6.478   2.256
  173POPC  H15B20533   6.018   6.459   2.420
  173POPC  H15C20534   6.071   6.352   2.295
  173POPC   C1120535   6.416   6.585   2.340
  173POPC  H11A20536   6.457   6.534   2.250
  173POPC  H11B20537   6.486   6.561   2.424
  173POPC     P20538   6.545   6.804   2.307
  173POPC   O1320539   6.542   6.894   2.188
  173POPC   O1420540   6.651   6.703   2.312
  173POPC   O1220541   6.406   6.726   2.317
  173POPC   O1120542   6.547   6.894   2.437
  173POPC    C120543   6.439   6.872   2.529
  173POPC    HA20544   6.436   6.767   2.567
  173POPC    HB20545   6.342   6.892   2.477
  173POPC    C220546   6.444   6.968   2.651
  173POPC    HS20547   6.520   7.045   2.631
  173POPC   O2120548   6.478   6.888   2.767
  173POPC   C2120549   6.460   6.939   2.887
  173POPC   O2220550   6.413   7.049   2.914
  173POPC   C2220551   6.507   6.841   2.995
  173POPC   H2R20552   6.605   6.875   3.034
  173POPC   H2S20553   6.521   6.742   2.947
  173POPC    C320554   6.306   7.037   2.659
  173POPC    HX20555   6.288   7.086   2.562
  173POPC    HY20556   6.300   7.117   2.735
  173POPC   O3120557   6.213   6.932   2.687
  173POPC   C3120558   6.086   6.954   2.686
  173POPC   O3220559   6.026   7.039   2.623
  173POPC   C3220560   6.022   6.851   2.777
  173POPC   H2X20561   6.014   6.761   2.715
  173POPC   H2Y20562   5.919   6.882   2.802
  173POPC   C2320563   6.404   6.825   3.110
  173POPC   H3R20564   6.429   6.735   3.170
  173POPC   H3S20565   6.306   6.809   3.063
  173POPC   C2420566   6.386   6.943   3.206
  173POPC   H4R20567   6.287   6.934   3.256
  173POPC   H4S20568   6.382   7.038   3.148
  173POPC   C2520569   6.494   6.950   3.313
  173POPC   H5R20570   6.583   6.897   3.274
  173POPC   H5S20571   6.463   6.895   3.404
  173POPC   C2620572   6.530   7.096   3.343
  173POPC   H6R20573   6.551   7.141   3.244
  173POPC   H6S20574   6.623   7.102   3.403
  173POPC   C2720575   6.419   7.175   3.411
  173POPC   H7R20576   6.328   7.174   3.346
  173POPC   H7S20577   6.450   7.282   3.419
  173POPC   C2820578   6.388   7.119   3.550
  173POPC   H8R20579   6.479   7.128   3.613
  173POPC   H8S20580   6.363   7.011   3.541
  173POPC   C2920581   6.270   7.188   3.612
  173POPC   H9120582   6.207   7.243   3.542
  173POPC  C21020583   6.230   7.178   3.739
  173POPC  H10120584   6.142   7.233   3.773
  173POPC  C21120585   6.299   7.093   3.841
  173POPC  H11R20586   6.361   7.015   3.791
  173POPC  H11S20587   6.225   7.038   3.903
  173POPC  C21220588   6.390   7.175   3.932
  173POPC  H12R20589   6.329   7.233   4.006
  173POPC  H12S20590   6.449   7.249   3.873
  173POPC  C21320591   6.484   7.078   4.003
  173POPC  H13R20592   6.525   7.006   3.929
  173POPC  H13S20593   6.423   7.022   4.077
  173POPC  C21420594   6.602   7.144   4.073
  173POPC  H14R20595   6.562   7.174   4.173
  173POPC  H14S20596   6.638   7.233   4.017
  173POPC  C21520597   6.718   7.051   4.105
  173POPC  H15R20598   6.796   7.110   4.159
  173POPC  H15S20599   6.765   7.013   4.012
  173POPC  C21620600   6.670   6.937   4.195
  173POPC  H16R20601   6.699   6.840   4.148
  173POPC  H16S20602   6.559   6.936   4.203
  173POPC  C21720603   6.728   6.947   4.335
  173POPC  H17R20604   6.671   6.887   4.409
  173POPC  H17S20605   6.720   7.052   4.369
  173POPC  C21820606   6.873   6.902   4.335
  173POPC  H18R20607   6.902   6.866   4.235
  173POPC  H18S20608   6.885   6.818   4.406
  173POPC  H18T20609   6.941   6.986   4.361
  173POPC   C3320610   6.106   6.822   2.905
  173POPC   H3X20611   6.105   6.910   2.973
  173POPC   H3Y20612   6.211   6.799   2.877
  173POPC   C3420613   6.048   6.698   2.975
  173POPC   H4X20614   6.059   6.613   2.905
  173POPC   H4Y20615   5.940   6.717   2.988
  173POPC   C3520616   6.107   6.647   3.107
  173POPC   H5X20617   6.217   6.641   3.109
  173POPC   H5Y20618   6.075   6.540   3.115
  173POPC   C3620619   6.050   6.717   3.231
  173POPC   H6X20620   5.957   6.770   3.204
  173POPC   H6Y20621   6.121   6.793   3.268
  173POPC   C3720622   6.015   6.618   3.343
  173POPC   H7X20623   6.106   6.558   3.366
  173POPC   H7Y20624   5.936   6.548   3.309
  173POPC   C3820625   5.969   6.694   3.467
  173POPC   H8X20626   5.869   6.741   3.449
  173POPC   H8Y20627   6.042   6.776   3.479
  173POPC   C3920628   5.969   6.618   3.600
  173POPC   H9X20629   5.896   6.535   3.596
  173POPC   H9Y20630   5.934   6.686   3.681
  173POPC  C31020631   6.105   6.561   3.638
  173POPC  H10X20632   6.131   6.477   3.571
  173POPC  H10Y20633   6.098   6.520   3.742
  173POPC  C31120634   6.219   6.663   3.633
  173POPC  H11X20635   6.197   6.745   3.705
  173POPC  H11Y20636   6.231   6.707   3.532
  173POPC  C31220637   6.349   6.595   3.671
  173POPC  H12X20638   6.380   6.521   3.594
  173POPC  H12Y20639   6.327   6.537   3.764
  173POPC  C31320640   6.460   6.697   3.694
  173POPC  H13X20641   6.420   6.780   3.756
  173POPC  H13Y20642   6.492   6.740   3.597
  173POPC  C31420643   6.580   6.636   3.767
  173POPC  H14X20644   6.648   6.720   3.796
  173POPC  H14Y20645   6.635   6.570   3.696
  173POPC  C31520646   6.545   6.555   3.892
  173POPC  H15X20647   6.640   6.529   3.943
  173POPC  H15Y20648   6.499   6.459   3.861
  173POPC  C31620649   6.451   6.626   3.991
  173POPC  H16X20650   6.352   6.648   3.946
  173POPC  H16Y20651   6.496   6.722   4.025
  173POPC  H16Z20652   6.435   6.562   4.081
  174POPC     N20653   4.609   7.797   2.177
  174POPC   C1220654   4.464   7.748   2.176
  174POPC  H12A20655   4.439   7.710   2.078
  174POPC  H12B20656   4.396   7.830   2.198
  174POPC   C1320657   4.645   7.847   2.040
  174POPC  H13A20658   4.583   7.930   2.010
  174POPC  H13B20659   4.749   7.880   2.038
  174POPC  H13C20660   4.637   7.767   1.967
  174POPC   C1420661   4.634   7.903   2.281
  174POPC  H14A20662   4.740   7.927   2.284
  174POPC  H14B20663   4.576   7.992   2.264
  174POPC  H14C20664   4.608   7.866   2.380
  174POPC   C1520665   4.701   7.683   2.209
  174POPC  H15A20666   4.679   7.642   2.308
  174POPC  H15B20667   4.806   7.708   2.207
  174POPC  H15C20668   4.683   7.600   2.142
  174POPC   C1120669   4.427   7.635   2.273
  174POPC  H11A20670   4.492   7.547   2.251
  174POPC  H11B20671   4.323   7.600   2.258
  174POPC     P20672   4.517   7.607   2.515
  174POPC   O1320673   4.568   7.711   2.607
  174POPC   O1420674   4.613   7.516   2.449
  174POPC   O1220675   4.442   7.686   2.403
  174POPC   O1120676   4.393   7.529   2.574
  174POPC    C120677   4.302   7.616   2.644
  174POPC    HA20678   4.203   7.568   2.644
  174POPC    HB20679   4.287   7.715   2.594
  174POPC    C220680   4.346   7.639   2.791
  174POPC    HS20681   4.419   7.722   2.796
  174POPC   O2120682   4.406   7.519   2.835
  174POPC   C2120683   4.456   7.518   2.954
  174POPC   O2220684   4.488   7.611   3.025
  174POPC   C2220685   4.442   7.371   2.992
  174POPC   H2R20686   4.509   7.310   2.929
  174POPC   H2S20687   4.337   7.346   2.963
  174POPC    C320688   4.218   7.674   2.871
  174POPC    HX20689   4.139   7.600   2.847
  174POPC    HY20690   4.184   7.769   2.829
  174POPC   O3120691   4.227   7.688   3.013
  174POPC   C3120692   4.283   7.805   3.041
  174POPC   O3220693   4.339   7.878   2.962
  174POPC   C3220694   4.235   7.848   3.180
  174POPC   H2X20695   4.163   7.772   3.218
  174POPC   H2Y20696   4.182   7.945   3.171
  174POPC   C2320697   4.452   7.334   3.141
  174POPC   H3R20698   4.488   7.420   3.201
  174POPC   H3S20699   4.527   7.252   3.153
  174POPC   C2420700   4.314   7.283   3.184
  174POPC   H4R20701   4.294   7.191   3.124
  174POPC   H4S20702   4.234   7.357   3.159
  174POPC   C2520703   4.301   7.244   3.330
  174POPC   H5R20704   4.397   7.202   3.364
  174POPC   H5S20705   4.225   7.162   3.336
  174POPC   C2620706   4.253   7.359   3.421
  174POPC   H6R20707   4.268   7.327   3.526
  174POPC   H6S20708   4.144   7.367   3.410
  174POPC   C2720709   4.308   7.501   3.398
  174POPC   H7R20710   4.254   7.550   3.314
  174POPC   H7S20711   4.415   7.499   3.368
  174POPC   C2820712   4.303   7.585   3.527
  174POPC   H8R20713   4.405   7.626   3.545
  174POPC   H8S20714   4.285   7.515   3.611
  174POPC   C2920715   4.198   7.693   3.530
  174POPC   H9120716   4.108   7.675   3.470
  174POPC  C21020717   4.210   7.807   3.601
  174POPC  H10120718   4.134   7.884   3.592
  174POPC  C21120719   4.327   7.844   3.686
  174POPC  H11R20720   4.338   7.956   3.686
  174POPC  H11S20721   4.422   7.805   3.645
  174POPC  C21220722   4.313   7.804   3.835
  174POPC  H12R20723   4.239   7.875   3.876
  174POPC  H12S20724   4.406   7.834   3.887
  174POPC  C21320725   4.266   7.662   3.876
  174POPC  H13R20726   4.346   7.607   3.929
  174POPC  H13S20727   4.236   7.600   3.789
  174POPC  C21420728   4.143   7.681   3.966
  174POPC  H14R20729   4.068   7.737   3.906
  174POPC  H14S20730   4.175   7.747   4.048
  174POPC  C21520731   4.065   7.564   4.027
  174POPC  H15R20732   4.130   7.499   4.088
  174POPC  H15S20733   4.020   7.504   3.945
  174POPC  C21620734   3.952   7.623   4.116
  174POPC  H16R20735   3.892   7.694   4.054
  174POPC  H16S20736   3.997   7.683   4.198
  174POPC  C21720737   3.855   7.521   4.175
  174POPC  H17R20738   3.791   7.571   4.251
  174POPC  H17S20739   3.912   7.441   4.227
  174POPC  C21820740   3.766   7.461   4.066
  174POPC  H18R20741   3.725   7.544   4.004
  174POPC  H18S20742   3.681   7.405   4.110
  174POPC  H18T20743   3.825   7.394   4.001
  174POPC   C3320744   4.353   7.857   3.276
  174POPC   H3X20745   4.393   7.754   3.289
  174POPC   H3Y20746   4.318   7.893   3.376
  174POPC   C3420747   4.467   7.949   3.232
  174POPC   H4X20748   4.451   8.049   3.278
  174POPC   H4Y20749   4.472   7.967   3.123
  174POPC   C3520750   4.601   7.885   3.274
  174POPC   H5X20751   4.683   7.951   3.242
  174POPC   H5Y20752   4.615   7.790   3.217
  174POPC   C3620753   4.598   7.855   3.426
  174POPC   H6X20754   4.544   7.758   3.435
  174POPC   H6Y20755   4.537   7.932   3.477
  174POPC   C3720756   4.729   7.840   3.503
  174POPC   H7X20757   4.783   7.935   3.520
  174POPC   H7Y20758   4.797   7.778   3.441
  174POPC   C3820759   4.706   7.769   3.637
  174POPC   H8X20760   4.799   7.713   3.663
  174POPC   H8Y20761   4.624   7.694   3.625
  174POPC   C3920762   4.674   7.852   3.762
  174POPC   H9X20763   4.586   7.919   3.749
  174POPC   H9Y20764   4.761   7.918   3.782
  174POPC  C31020765   4.656   7.751   3.876
  174POPC  H10X20766   4.719   7.664   3.847
  174POPC  H10Y20767   4.554   7.708   3.879
  174POPC  C31120768   4.711   7.793   4.013
  174POPC  H11X20769   4.676   7.894   4.041
  174POPC  H11Y20770   4.818   7.798   3.990
  174POPC  C31220771   4.692   7.687   4.126
  174POPC  H12X20772   4.765   7.607   4.102
  174POPC  H12Y20773   4.589   7.644   4.119
  174POPC  C31320774   4.721   7.718   4.275
  174POPC  H13X20775   4.668   7.809   4.309
  174POPC  H13Y20776   4.829   7.737   4.288
  174POPC  C31420777   4.678   7.598   4.366
  174POPC  H14X20778   4.745   7.512   4.347
  174POPC  H14Y20779   4.578   7.563   4.333
  174POPC  C31520780   4.671   7.627   4.517
  174POPC  H15X20781   4.615   7.721   4.533
  174POPC  H15Y20782   4.772   7.649   4.555
  174POPC  C31620783   4.604   7.518   4.604
  174POPC  H16X20784   4.501   7.497   4.569
  174POPC  H16Y20785   4.598   7.551   4.710
  174POPC  H16Z20786   4.659   7.421   4.604
  175POPC     N20787   0.836   6.157   2.422
  175POPC   C1220788   0.816   6.306   2.449
  175POPC  H12A20789   0.865   6.332   2.543
  175POPC  H12B20790   0.710   6.326   2.467
  175POPC   C1320791   0.783   6.076   2.535
  175POPC  H13A20792   0.839   6.093   2.628
  175POPC  H13B20793   0.680   6.100   2.557
  175POPC  H13C20794   0.788   5.970   2.512
  175POPC   C1420795   0.763   6.119   2.297
  175POPC  H14A20796   0.772   6.014   2.273
  175POPC  H14B20797   0.658   6.148   2.303
  175POPC  H14C20798   0.800   6.181   2.214
  175POPC   C1520799   0.980   6.122   2.399
  175POPC  H15A20800   1.043   6.150   2.482
  175POPC  H15B20801   1.014   6.174   2.310
  175POPC  H15C20802   0.991   6.015   2.380
  175POPC   C1120803   0.857   6.410   2.341
  175POPC  H11A20804   0.966   6.399   2.318
  175POPC  H11B20805   0.844   6.513   2.384
  175POPC     P20806   0.628   6.433   2.208
  175POPC   O1320807   0.559   6.306   2.176
  175POPC   O1420808   0.613   6.553   2.122
  175POPC   O1220809   0.782   6.396   2.221
  175POPC   O1120810   0.592   6.466   2.355
  175POPC    C120811   0.459   6.507   2.387
  175POPC    HA20812   0.381   6.457   2.324
  175POPC    HB20813   0.450   6.618   2.370
  175POPC    C220814   0.430   6.478   2.536
  175POPC    HS20815   0.356   6.555   2.568
  175POPC   O2120816   0.556   6.482   2.604
  175POPC   C2120817   0.552   6.545   2.716
  175POPC   O2220818   0.451   6.590   2.767
  175POPC   C2220819   0.686   6.545   2.786
  175POPC   H2R20820   0.679   6.498   2.884
  175POPC   H2S20821   0.716   6.651   2.801
  175POPC    C320822   0.370   6.338   2.566
  175POPC    HX20823   0.451   6.263   2.551
  175POPC    HY20824   0.292   6.318   2.491
  175POPC   O3120825   0.311   6.338   2.699
  175POPC   C3120826   0.393   6.312   2.803
  175POPC   O3220827   0.497   6.248   2.793
  175POPC   C3220828   0.344   6.385   2.932
  175POPC   H2X20829   0.252   6.341   2.972
  175POPC   H2Y20830   0.309   6.481   2.892
  175POPC   C2320831   0.795   6.472   2.708
  175POPC   H3R20832   0.792   6.506   2.601
  175POPC   H3S20833   0.779   6.362   2.713
  175POPC   C2420834   0.931   6.511   2.761
  175POPC   H4R20835   0.940   6.620   2.753
  175POPC   H4S20836   1.002   6.469   2.689
  175POPC   C2520837   0.961   6.470   2.906
  175POPC   H5R20838   0.907   6.540   2.974
  175POPC   H5S20839   1.070   6.483   2.924
  175POPC   C2620840   0.919   6.326   2.942
  175POPC   H6R20841   0.943   6.260   2.857
  175POPC   H6S20842   0.808   6.327   2.956
  175POPC   C2720843   0.982   6.265   3.069
  175POPC   H7R20844   1.080   6.221   3.043
  175POPC   H7S20845   0.918   6.180   3.103
  175POPC   C2820846   1.002   6.366   3.183
  175POPC   H8R20847   1.052   6.457   3.145
  175POPC   H8S20848   1.072   6.323   3.259
  175POPC   C2920849   0.866   6.396   3.241
  175POPC   H9120850   0.807   6.472   3.187
  175POPC  C21020851   0.813   6.332   3.346
  175POPC  H10120852   0.713   6.360   3.383
  175POPC  C21120853   0.883   6.223   3.423
  175POPC  H11R20854   0.962   6.171   3.363
  175POPC  H11S20855   0.810   6.145   3.454
  175POPC  C21220856   0.951   6.284   3.546
  175POPC  H12R20857   0.894   6.372   3.582
  175POPC  H12S20858   1.049   6.325   3.516
  175POPC  C21320859   0.970   6.180   3.658
  175POPC  H13R20860   1.019   6.093   3.609
  175POPC  H13S20861   0.872   6.146   3.698
  175POPC  C21420862   1.063   6.225   3.772
  175POPC  H14R20863   1.122   6.313   3.740
  175POPC  H14S20864   1.132   6.140   3.788
  175POPC  C21520865   1.000   6.251   3.911
  175POPC  H15R20866   0.944   6.162   3.945
  175POPC  H15S20867   0.930   6.336   3.907
  175POPC  C21620868   1.109   6.287   4.014
  175POPC  H16R20869   1.190   6.342   3.961
  175POPC  H16S20870   1.152   6.194   4.055
  175POPC  C21720871   1.061   6.377   4.129
  175POPC  H17R20872   1.043   6.480   4.089
  175POPC  H17S20873   1.144   6.386   4.203
  175POPC  C21820874   0.934   6.330   4.201
  175POPC  H18R20875   0.914   6.394   4.289
  175POPC  H18S20876   0.944   6.225   4.235
  175POPC  H18T20877   0.846   6.336   4.133
  175POPC   C3320878   0.447   6.423   3.045
  175POPC   H3X20879   0.549   6.427   3.004
  175POPC   H3Y20880   0.452   6.347   3.123
  175POPC   C3420881   0.416   6.562   3.104
  175POPC   H4X20882   0.306   6.575   3.098
  175POPC   H4Y20883   0.461   6.637   3.035
  175POPC   C3520884   0.457   6.599   3.250
  175POPC   H5X20885   0.423   6.704   3.265
  175POPC   H5Y20886   0.568   6.599   3.263
  175POPC   C3620887   0.387   6.518   3.360
  175POPC   H6X20888   0.444   6.426   3.382
  175POPC   H6Y20889   0.291   6.489   3.311
  175POPC   C3720890   0.339   6.588   3.491
  175POPC   H7X20891   0.232   6.559   3.505
  175POPC   H7Y20892   0.338   6.698   3.476
  175POPC   C3820893   0.409   6.548   3.623
  175POPC   H8X20894   0.506   6.603   3.627
  175POPC   H8Y20895   0.435   6.441   3.624
  175POPC   C3920896   0.328   6.583   3.752
  175POPC   H9X20897   0.251   6.659   3.729
  175POPC   H9Y20898   0.399   6.629   3.825
  175POPC  C31020899   0.261   6.467   3.826
  175POPC  H10X20900   0.339   6.396   3.856
  175POPC  H10Y20901   0.189   6.415   3.760
  175POPC  C31120902   0.194   6.508   3.958
  175POPC  H11X20903   0.089   6.472   3.960
  175POPC  H11Y20904   0.191   6.618   3.963
  175POPC  C31220905   0.265   6.452   4.083
  175POPC  H12X20906   0.255   6.341   4.081
  175POPC  H12Y20907   0.214   6.487   4.175
  175POPC  C31320908   0.413   6.492   4.087
  175POPC  H13X20909   0.419   6.603   4.101
  175POPC  H13Y20910   0.462   6.473   3.991
  175POPC  C31420911   0.498   6.426   4.196
  175POPC  H14X20912   0.463   6.476   4.288
  175POPC  H14Y20913   0.605   6.452   4.180
  175POPC  C31520914   0.483   6.275   4.223
  175POPC  H15X20915   0.390   6.263   4.284
  175POPC  H15Y20916   0.568   6.244   4.288
  175POPC  C31620917   0.476   6.177   4.105
  175POPC  H16X20918   0.424   6.084   4.136
  175POPC  H16Y20919   0.578   6.150   4.070
  175POPC  H16Z20920   0.420   6.221   4.020
  176POPC     N20921   6.007   7.137   2.298
  176POPC   C1220922   5.894   7.155   2.396
  176POPC  H12A20923   5.909   7.249   2.449
  176POPC  H12B20924   5.899   7.078   2.472
  176POPC   C1320925   6.021   7.259   2.214
  176POPC  H13A20926   6.094   7.246   2.135
  176POPC  H13B20927   5.923   7.288   2.176
  176POPC  H13C20928   6.053   7.343   2.276
  176POPC   C1420929   6.134   7.120   2.372
  176POPC  H14A20930   6.121   7.049   2.453
  176POPC  H14B20931   6.211   7.083   2.306
  176POPC  H14C20932   6.167   7.213   2.419
  176POPC   C1520933   5.982   7.017   2.215
  176POPC  H15A20934   5.887   7.031   2.165
  176POPC  H15B20935   5.971   6.931   2.279
  176POPC  H15C20936   6.061   7.000   2.143
  176POPC   C1120937   5.752   7.160   2.336
  176POPC  H11A20938   5.678   7.150   2.418
  176POPC  H11B20939   5.734   7.073   2.270
  176POPC     P20940   5.700   7.407   2.357
  176POPC   O1320941   5.573   7.383   2.429
  176POPC   O1420942   5.698   7.528   2.272
  176POPC   O1220943   5.734   7.281   2.263
  176POPC   O1120944   5.821   7.416   2.461
  176POPC    C120945   5.921   7.520   2.441
  176POPC    HA20946   5.885   7.608   2.383
  176POPC    HB20947   6.007   7.477   2.385
  176POPC    C220948   5.986   7.587   2.569
  176POPC    HS20949   6.083   7.629   2.534
  176POPC   O2120950   6.011   7.499   2.678
  176POPC   C2120951   6.075   7.389   2.655
  176POPC   O2220952   6.138   7.357   2.556
  176POPC   C2220953   6.052   7.304   2.777
  176POPC   H2R20954   6.082   7.362   2.867
  176POPC   H2S20955   6.114   7.214   2.771
  176POPC    C320956   5.901   7.705   2.626
  176POPC    HX20957   5.873   7.770   2.540
  176POPC    HY20958   5.965   7.768   2.693
  176POPC   O3120959   5.781   7.660   2.690
  176POPC   C3120960   5.784   7.642   2.821
  176POPC   O3220961   5.874   7.674   2.897
  176POPC   C3220962   5.651   7.579   2.868
  176POPC   H2X20963   5.650   7.472   2.840
  176POPC   H2Y20964   5.569   7.629   2.813
  176POPC   C2320965   5.901   7.272   2.783
  176POPC   H3R20966   5.865   7.235   2.684
  176POPC   H3S20967   5.843   7.364   2.806
  176POPC   C2420968   5.869   7.165   2.885
  176POPC   H4R20969   5.923   7.073   2.857
  176POPC   H4S20970   5.760   7.144   2.883
  176POPC   C2520971   5.913   7.196   3.028
  176POPC   H5R20972   5.888   7.300   3.057
  176POPC   H5S20973   6.024   7.185   3.035
  176POPC   C2620974   5.843   7.095   3.118
  176POPC   H6R20975   5.810   7.009   3.056
  176POPC   H6S20976   5.751   7.139   3.161
  176POPC   C2720977   5.934   7.038   3.225
  176POPC   H7R20978   6.014   6.980   3.172
  176POPC   H7S20979   5.872   6.965   3.283
  176POPC   C2820980   5.999   7.141   3.316
  176POPC   H8R20981   5.925   7.210   3.361
  176POPC   H8S20982   6.072   7.204   3.260
  176POPC   C2920983   6.067   7.059   3.419
  176POPC   H9120984   6.171   7.031   3.398
  176POPC  C21020985   6.011   7.014   3.532
  176POPC  H10120986   6.074   6.950   3.595
  176POPC  C21120987   5.871   7.035   3.581
  176POPC  H11R20988   5.811   6.942   3.571
  176POPC  H11S20989   5.817   7.115   3.525
  176POPC  C21220990   5.877   7.074   3.730
  176POPC  H12R20991   5.773   7.091   3.767
  176POPC  H12S20992   5.932   7.170   3.741
  176POPC  C21320993   5.943   6.967   3.817
  176POPC  H13R20994   6.048   6.947   3.787
  176POPC  H13S20995   5.887   6.873   3.803
  176POPC  C21420996   5.950   7.010   3.963
  176POPC  H14R20997   5.847   7.027   4.002
  176POPC  H14S20998   6.006   7.105   3.967
  176POPC  C21520999   6.027   6.916   4.056
  176POPC  H15R21000   6.134   6.908   4.027
  176POPC  H15S21001   5.989   6.813   4.050
  176POPC  C21621002   6.015   6.968   4.198
  176POPC  H16R21003   5.984   6.886   4.266
  176POPC  H16S21004   5.935   7.045   4.203
  176POPC  C21721005   6.145   7.031   4.246
  176POPC  H17R21006   6.177   7.110   4.175
  176POPC  H17S21007   6.226   6.955   4.249
  176POPC  C21821008   6.123   7.088   4.385
  176POPC  H18R21009   6.097   7.006   4.455
  176POPC  H18S21010   6.034   7.154   4.385
  176POPC  H18T21011   6.211   7.144   4.422
  176POPC   C3321012   5.627   7.594   3.021
  176POPC   H3X21013   5.518   7.590   3.039
  176POPC   H3Y21014   5.664   7.692   3.058
  176POPC   C3421015   5.690   7.478   3.100
  176POPC   H4X21016   5.801   7.481   3.086
  176POPC   H4Y21017   5.652   7.383   3.056
  176POPC   C3521018   5.659   7.479   3.250
  176POPC   H5X21019   5.564   7.532   3.268
  176POPC   H5Y21020   5.739   7.536   3.303
  176POPC   C3621021   5.648   7.336   3.307
  176POPC   H6X21022   5.750   7.301   3.329
  176POPC   H6Y21023   5.605   7.269   3.229
  176POPC   C3721024   5.561   7.316   3.432
  176POPC   H7X21025   5.593   7.223   3.484
  176POPC   H7Y21026   5.455   7.301   3.402
  176POPC   C3821027   5.564   7.431   3.532
  176POPC   H8X21028   5.499   7.405   3.618
  176POPC   H8Y21029   5.518   7.522   3.486
  176POPC   C3921030   5.704   7.465   3.583
  176POPC   H9X21031   5.776   7.488   3.501
  176POPC   H9Y21032   5.744   7.377   3.636
  176POPC  C31021033   5.691   7.588   3.672
  176POPC  H10X21034   5.616   7.567   3.751
  176POPC  H10Y21035   5.653   7.672   3.610
  176POPC  C31121036   5.817   7.637   3.739
  176POPC  H11X21037   5.791   7.720   3.809
  176POPC  H11Y21038   5.885   7.681   3.661
  176POPC  C31221039   5.897   7.531   3.815
  176POPC  H12X21040   5.949   7.592   3.891
  176POPC  H12Y21041   5.967   7.482   3.743
  176POPC  C31321042   5.832   7.417   3.892
  176POPC  H13X21043   5.796   7.340   3.822
  176POPC  H13Y21044   5.746   7.457   3.948
  176POPC  C31421045   5.930   7.345   3.987
  176POPC  H14X21046   6.011   7.301   3.925
  176POPC  H14Y21047   5.875   7.264   4.039
  176POPC  C31521048   5.994   7.438   4.089
  176POPC  H15X21049   5.912   7.497   4.134
  176POPC  H15Y21050   6.063   7.507   4.037
  176POPC  C31621051   6.075   7.375   4.201
  176POPC  H16X21052   6.008   7.309   4.260
  176POPC  H16Y21053   6.115   7.454   4.268
  176POPC  H16Z21054   6.160   7.317   4.161
  177POPC     N21055   7.522   2.104   2.189
  177POPC   C1221056   7.598   1.973   2.176
  177POPC  H12A21057   7.666   1.981   2.091
  177POPC  H12B21058   7.528   1.894   2.154
  177POPC   C1321059   7.426   2.102   2.306
  177POPC  H13A21060   7.360   2.016   2.308
  177POPC  H13B21061   7.483   2.098   2.399
  177POPC  H13C21062   7.365   2.191   2.310
  177POPC   C1421063   7.619   2.214   2.217
  177POPC  H14A21064   7.564   2.307   2.230
  177POPC  H14B21065   7.672   2.196   2.310
  177POPC  H14C21066   7.689   2.230   2.136
  177POPC   C1521067   7.450   2.132   2.062
  177POPC  H15A21068   7.395   2.226   2.068
  177POPC  H15B21069   7.379   2.054   2.037
  177POPC  H15C21070   7.520   2.143   1.979
  177POPC   C1121071   7.681   1.924   2.296
  177POPC  H11A21072   7.749   2.006   2.330
  177POPC  H11B21073   7.744   1.837   2.267
  177POPC     P21074   7.640   1.894   2.546
  177POPC   O1321075   7.646   2.037   2.581
  177POPC   O1421076   7.763   1.811   2.560
  177POPC   O1221077   7.591   1.881   2.397
  177POPC   O1121078   7.520   1.824   2.622
  177POPC    C121079   7.383   1.830   2.578
  177POPC    HA21080   7.358   1.732   2.530
  177POPC    HB21081   7.368   1.906   2.500
  177POPC    C221082   7.284   1.844   2.700
  177POPC    HS21083   7.210   1.761   2.695
  177POPC   O2121084   7.207   1.964   2.714
  177POPC   C2121085   7.178   2.044   2.614
  177POPC   O2221086   7.173   2.017   2.496
  177POPC   C2221087   7.175   2.186   2.672
  177POPC   H2R21088   7.072   2.210   2.707
  177POPC   H2S21089   7.199   2.253   2.587
  177POPC    C321090   7.371   1.827   2.828
  177POPC    HX21091   7.436   1.915   2.821
  177POPC    HY21092   7.440   1.741   2.825
  177POPC   O3121093   7.306   1.834   2.953
  177POPC   C3121094   7.201   1.760   2.977
  177POPC   O3221095   7.174   1.652   2.930
  177POPC   C3221096   7.122   1.831   3.084
  177POPC   H2X21097   7.173   1.798   3.176
  177POPC   H2Y21098   7.020   1.790   3.089
  177POPC   C2321099   7.280   2.210   2.784
  177POPC   H3R21100   7.257   2.149   2.873
  177POPC   H3S21101   7.274   2.317   2.815
  177POPC   C2421102   7.423   2.182   2.737
  177POPC   H4R21103   7.444   2.249   2.651
  177POPC   H4S21104   7.431   2.079   2.696
  177POPC   C2521105   7.536   2.201   2.839
  177POPC   H5R21106   7.532   2.305   2.877
  177POPC   H5S21107   7.630   2.186   2.781
  177POPC   C2621108   7.550   2.103   2.957
  177POPC   H6R21109   7.569   2.000   2.923
  177POPC   H6S21110   7.458   2.105   3.019
  177POPC   C2721111   7.673   2.138   3.042
  177POPC   H7R21112   7.666   2.247   3.059
  177POPC   H7S21113   7.765   2.121   2.981
  177POPC   C2821114   7.682   2.061   3.176
  177POPC   H8R21115   7.586   2.072   3.230
  177POPC   H8S21116   7.759   2.112   3.238
  177POPC   C2921117   7.722   1.917   3.156
  177POPC   H9121118   7.824   1.904   3.117
  177POPC  C21021119   7.646   1.807   3.174
  177POPC  H10121120   7.690   1.708   3.151
  177POPC  C21121121   7.503   1.803   3.220
  177POPC  H11R21122   7.446   1.724   3.166
  177POPC  H11S21123   7.453   1.899   3.193
  177POPC  C21221124   7.487   1.784   3.372
  177POPC  H12R21125   7.391   1.831   3.400
  177POPC  H12S21126   7.568   1.839   3.426
  177POPC  C21321127   7.481   1.639   3.423
  177POPC  H13R21128   7.566   1.580   3.381
  177POPC  H13S21129   7.386   1.594   3.385
  177POPC  C21421130   7.483   1.628   3.577
  177POPC  H14R21131   7.587   1.643   3.613
  177POPC  H14S21132   7.450   1.526   3.607
  177POPC  C21521133   7.394   1.733   3.647
  177POPC  H15R21134   7.291   1.725   3.606
  177POPC  H15S21135   7.433   1.834   3.624
  177POPC  C21621136   7.388   1.721   3.800
  177POPC  H16R21137   7.489   1.738   3.842
  177POPC  H16S21138   7.359   1.617   3.828
  177POPC  C21721139   7.288   1.821   3.861
  177POPC  H17R21140   7.194   1.818   3.802
  177POPC  H17S21141   7.330   1.924   3.850
  177POPC  C21821142   7.255   1.794   4.008
  177POPC  H18R21143   7.209   1.694   4.019
  177POPC  H18S21144   7.183   1.869   4.047
  177POPC  H18T21145   7.347   1.796   4.070
  177POPC   C3321146   7.122   1.985   3.062
  177POPC   H3X21147   7.049   2.013   2.983
  177POPC   H3Y21148   7.222   2.020   3.027
  177POPC   C3421149   7.103   2.068   3.188
  177POPC   H4X21150   6.998   2.063   3.222
  177POPC   H4Y21151   7.124   2.175   3.164
  177POPC   C3521152   7.200   2.026   3.299
  177POPC   H5X21153   7.304   2.053   3.269
  177POPC   H5Y21154   7.199   1.917   3.320
  177POPC   C3621155   7.163   2.089   3.430
  177POPC   H6X21156   7.058   2.066   3.457
  177POPC   H6Y21157   7.170   2.198   3.412
  177POPC   C3721158   7.254   2.042   3.544
  177POPC   H7X21159   7.255   1.932   3.548
  177POPC   H7Y21160   7.213   2.076   3.641
  177POPC   C3821161   7.395   2.098   3.524
  177POPC   H8X21162   7.389   2.184   3.453
  177POPC   H8Y21163   7.461   2.023   3.477
  177POPC   C3921164   7.460   2.150   3.653
  177POPC   H9X21165   7.481   2.066   3.722
  177POPC   H9Y21166   7.388   2.215   3.706
  177POPC  C31021167   7.586   2.231   3.620
  177POPC  H10X21168   7.613   2.295   3.706
  177POPC  H10Y21169   7.564   2.300   3.535
  177POPC  C31121170   7.705   2.142   3.582
  177POPC  H11X21171   7.793   2.207   3.562
  177POPC  H11Y21172   7.681   2.089   3.487
  177POPC  C31221173   7.739   2.038   3.690
  177POPC  H12X21174   7.835   1.988   3.662
  177POPC  H12Y21175   7.661   1.959   3.691
  177POPC  C31321176   7.752   2.099   3.831
  177POPC  H13X21177   7.659   2.153   3.859
  177POPC  H13Y21178   7.835   2.174   3.828
  177POPC  C31421179   7.780   1.995   3.940
  177POPC  H14X21180   7.829   2.045   4.027
  177POPC  H14Y21181   7.851   1.921   3.899
  177POPC  C31521182   7.653   1.924   3.990
  177POPC  H15X21183   7.580   1.920   3.906
  177POPC  H15Y21184   7.606   1.985   4.070
  177POPC  C31621185   7.679   1.782   4.040
  177POPC  H16X21186   7.585   1.734   4.076
  177POPC  H16Y21187   7.753   1.783   4.124
  177POPC  H16Z21188   7.721   1.719   3.958
  178POPC     N21189   6.139   0.495   2.196
  178POPC   C1221190   6.110   0.479   2.344
  178POPC  H12A21191   6.018   0.532   2.366
  178POPC  H12B21192   6.191   0.522   2.402
  178POPC   C1321193   6.028   0.425   2.123
  178POPC  H13A21194   5.932   0.464   2.157
  178POPC  H13B21195   6.033   0.442   2.017
  178POPC  H13C21196   6.031   0.319   2.147
  178POPC   C1421197   6.144   0.637   2.148
  178POPC  H14A21198   6.153   0.641   2.040
  178POPC  H14B21199   6.054   0.690   2.176
  178POPC  H14C21200   6.229   0.692   2.188
  178POPC   C1521201   6.269   0.429   2.164
  178POPC  H15A21202   6.282   0.420   2.058
  178POPC  H15B21203   6.271   0.330   2.210
  178POPC  H15C21204   6.351   0.485   2.207
  178POPC   C1121205   6.100   0.333   2.395
  178POPC  H11A21206   6.026   0.273   2.338
  178POPC  H11B21207   6.068   0.335   2.502
  178POPC     P21208   6.265   0.137   2.446
  178POPC   O1321209   6.245   0.039   2.336
  178POPC   O1421210   6.187   0.124   2.571
  178POPC   O1221211   6.230   0.276   2.384
  178POPC   O1121212   6.417   0.151   2.479
  178POPC    C121213   6.509   0.247   2.430
  178POPC    HA21214   6.459   0.339   2.391
  178POPC    HB21215   6.567   0.200   2.347
  178POPC    C221216   6.609   0.288   2.540
  178POPC    HS21217   6.706   0.308   2.492
  178POPC   O2121218   6.622   0.189   2.639
  178POPC   C2121219   6.685   0.080   2.614
  178POPC   O2221220   6.772   0.065   2.529
  178POPC   C2221221   6.650  -0.011   2.735
  178POPC   H2R21222   6.746  -0.036   2.784
  178POPC   H2S21223   6.606  -0.105   2.698
  178POPC    C321224   6.571   0.412   2.622
  178POPC    HX21225   6.551   0.490   2.547
  178POPC    HY21226   6.662   0.443   2.677
  178POPC   O3121227   6.465   0.388   2.719
  178POPC   C3121228   6.340   0.407   2.682
  178POPC   O3221229   6.301   0.451   2.575
  178POPC   C3221230   6.247   0.382   2.802
  178POPC   H2X21231   6.303   0.405   2.894
  178POPC   H2Y21232   6.221   0.275   2.801
  178POPC   C2321233   6.551   0.052   2.839
  178POPC   H3R21234   6.559   0.163   2.844
  178POPC   H3S21235   6.577   0.022   2.940
  178POPC   C2421236   6.404   0.014   2.818
  178POPC   H4R21237   6.392  -0.096   2.810
  178POPC   H4S21238   6.374   0.058   2.720
  178POPC   C2521239   6.309   0.070   2.927
  178POPC   H5R21240   6.207   0.073   2.883
  178POPC   H5S21241   6.339   0.174   2.953
  178POPC   C2621242   6.302  -0.013   3.055
  178POPC   H6R21243   6.397   0.002   3.111
  178POPC   H6S21244   6.293  -0.120   3.027
  178POPC   C2721245   6.184   0.023   3.150
  178POPC   H7R21246   6.093   0.040   3.087
  178POPC   H7S21247   6.209   0.120   3.199
  178POPC   C2821248   6.149  -0.083   3.257
  178POPC   H8R21249   6.095  -0.165   3.206
  178POPC   H8S21250   6.079  -0.040   3.333
  178POPC   C2921251   6.275  -0.136   3.319
  178POPC   H9121252   6.349  -0.159   3.242
  178POPC  C21021253   6.310  -0.174   3.444
  178POPC  H10121254   6.414  -0.205   3.460
  178POPC  C21121255   6.228  -0.178   3.569
  178POPC  H11R21256   6.232  -0.282   3.603
  178POPC  H11S21257   6.120  -0.158   3.552
  178POPC  C21221258   6.284  -0.108   3.694
  178POPC  H12R21259   6.329  -0.011   3.668
  178POPC  H12S21260   6.361  -0.175   3.739
  178POPC  C21321261   6.175  -0.089   3.796
  178POPC  H13R21262   6.147  -0.192   3.828
  178POPC  H13S21263   6.091  -0.041   3.740
  178POPC  C21421264   6.195  -0.004   3.922
  178POPC  H14R21265   6.104  -0.010   3.985
  178POPC  H14S21266   6.201   0.102   3.893
  178POPC  C21521267   6.315  -0.042   4.009
  178POPC  H15R21268   6.405  -0.026   3.951
  178POPC  H15S21269   6.312  -0.148   4.042
  178POPC  C21621270   6.326   0.057   4.124
  178POPC  H16R21271   6.223   0.063   4.162
  178POPC  H16S21272   6.354   0.154   4.075
  178POPC  C21721273   6.429   0.031   4.235
  178POPC  H17R21274   6.528   0.032   4.186
  178POPC  H17S21275   6.410  -0.068   4.282
  178POPC  C21821276   6.450   0.136   4.344
  178POPC  H18R21277   6.474   0.235   4.301
  178POPC  H18S21278   6.532   0.104   4.411
  178POPC  H18T21279   6.361   0.148   4.406
  178POPC   C3321280   6.116   0.463   2.795
  178POPC   H3X21281   6.047   0.414   2.723
  178POPC   H3Y21282   6.137   0.566   2.757
  178POPC   C3421283   6.042   0.486   2.929
  178POPC   H4X21284   5.943   0.530   2.905
  178POPC   H4Y21285   6.099   0.563   2.985
  178POPC   C3521286   6.018   0.365   3.020
  178POPC   H5X21287   6.116   0.317   3.044
  178POPC   H5Y21288   5.957   0.289   2.966
  178POPC   C3621289   5.948   0.405   3.151
  178POPC   H6X21290   5.845   0.443   3.130
  178POPC   H6Y21291   6.005   0.489   3.196
  178POPC   C3721292   5.938   0.290   3.252
  178POPC   H7X21293   6.010   0.213   3.219
  178POPC   H7Y21294   5.837   0.243   3.249
  178POPC   C3821295   5.974   0.327   3.397
  178POPC   H8X21296   5.885   0.364   3.452
  178POPC   H8Y21297   6.050   0.409   3.396
  178POPC   C3921298   6.037   0.207   3.468
  178POPC   H9X21299   6.121   0.170   3.405
  178POPC   H9Y21300   5.964   0.124   3.477
  178POPC  C31021301   6.097   0.241   3.605
  178POPC  H10X21302   6.066   0.165   3.679
  178POPC  H10Y21303   6.060   0.340   3.640
  178POPC  C31121304   6.250   0.245   3.596
  178POPC  H11X21305   6.278   0.322   3.522
  178POPC  H11Y21306   6.288   0.148   3.556
  178POPC  C31221307   6.318   0.278   3.728
  178POPC  H12X21308   6.341   0.184   3.782
  178POPC  H12Y21309   6.250   0.339   3.791
  178POPC  C31321310   6.450   0.352   3.709
  178POPC  H13X21311   6.431   0.454   3.670
  178POPC  H13Y21312   6.511   0.298   3.633
  178POPC  C31421313   6.528   0.359   3.840
  178POPC  H14X21314   6.631   0.393   3.819
  178POPC  H14Y21315   6.534   0.259   3.887
  178POPC  C31521316   6.470   0.456   3.942
  178POPC  H15X21317   6.360   0.443   3.950
  178POPC  H15Y21318   6.489   0.558   3.901
  178POPC  C31621319   6.531   0.441   4.081
  178POPC  H16X21320   6.495   0.520   4.149
  178POPC  H16Y21321   6.642   0.448   4.077
  178POPC  H16Z21322   6.504   0.342   4.124
  179POPC     N21323   7.061   0.275   2.199
  179POPC   C1221324   6.991   0.257   2.331
  179POPC  H12A21325   7.065   0.231   2.407
  179POPC  H12B21326   6.921   0.174   2.328
  179POPC   C1321327   7.195   0.338   2.225
  179POPC  H13A21328   7.267   0.266   2.262
  179POPC  H13B21329   7.236   0.384   2.134
  179POPC  H13C21330   7.182   0.417   2.299
  179POPC   C1421331   7.082   0.146   2.128
  179POPC  H14A21332   7.161   0.156   2.054
  179POPC  H14B21333   7.111   0.067   2.195
  179POPC  H14C21334   6.991   0.116   2.076
  179POPC   C1521335   6.982   0.369   2.113
  179POPC  H15A21336   6.880   0.335   2.104
  179POPC  H15B21337   7.026   0.382   2.015
  179POPC  H15C21338   6.979   0.466   2.163
  179POPC   C1121339   6.918   0.382   2.385
  179POPC  H11A21340   6.895   0.353   2.490
  179POPC  H11B21341   6.822   0.398   2.332
  179POPC     P21342   6.982   0.605   2.498
  179POPC   O1321343   6.848   0.583   2.556
  179POPC   O1421344   7.017   0.739   2.449
  179POPC   O1221345   7.000   0.499   2.381
  179POPC   O1121346   7.086   0.555   2.601
  179POPC    C121347   7.216   0.604   2.628
  179POPC    HA21348   7.204   0.681   2.707
  179POPC    HB21349   7.266   0.652   2.540
  179POPC    C221350   7.304   0.489   2.686
  179POPC    HS21351   7.358   0.440   2.602
  179POPC   O2121352   7.223   0.390   2.755
  179POPC   C2121353   7.141   0.311   2.688
  179POPC   O2221354   7.144   0.283   2.569
  179POPC   C2221355   7.041   0.249   2.785
  179POPC   H2R21356   7.074   0.272   2.888
  179POPC   H2S21357   7.040   0.140   2.768
  179POPC    C321358   7.412   0.549   2.784
  179POPC    HX21359   7.470   0.627   2.730
  179POPC    HY21360   7.482   0.468   2.812
  179POPC   O3121361   7.347   0.603   2.902
  179POPC   C3121362   7.428   0.655   2.994
  179POPC   O3221363   7.546   0.677   2.980
  179POPC   C3221364   7.348   0.684   3.121
  179POPC   H2X21365   7.243   0.652   3.107
  179POPC   H2Y21366   7.350   0.795   3.130
  179POPC   C2321367   6.900   0.307   2.761
  179POPC   H3R21368   6.858   0.261   2.670
  179POPC   H3S21369   6.904   0.416   2.742
  179POPC   C2421370   6.805   0.284   2.880
  179POPC   H4R21371   6.796   0.174   2.897
  179POPC   H4S21372   6.705   0.324   2.854
  179POPC   C2521373   6.850   0.351   3.010
  179POPC   H5R21374   6.930   0.290   3.057
  179POPC   H5S21375   6.764   0.354   3.080
  179POPC   C2621376   6.910   0.491   2.990
  179POPC   H6R21377   6.833   0.559   2.946
  179POPC   H6S21378   6.996   0.488   2.919
  179POPC   C2721379   6.963   0.549   3.120
  179POPC   H7R21380   7.013   0.645   3.093
  179POPC   H7S21381   7.041   0.482   3.163
  179POPC   C2821382   6.851   0.570   3.222
  179POPC   H8R21383   6.823   0.474   3.271
  179POPC   H8S21384   6.761   0.608   3.169
  179POPC   C2921385   6.901   0.672   3.319
  179POPC   H9121386   6.948   0.758   3.269
  179POPC  C21021387   6.889   0.671   3.452
  179POPC  H10121388   6.928   0.752   3.515
  179POPC  C21121389   6.823   0.567   3.533
  179POPC  H11R21390   6.734   0.525   3.483
  179POPC  H11S21391   6.793   0.608   3.632
  179POPC  C21221392   6.928   0.461   3.551
  179POPC  H12R21393   7.015   0.501   3.608
  179POPC  H12S21394   6.965   0.420   3.454
  179POPC  C21321395   6.859   0.353   3.629
  179POPC  H13R21396   6.811   0.282   3.559
  179POPC  H13S21397   6.776   0.398   3.687
  179POPC  C21421398   6.953   0.287   3.726
  179POPC  H14R21399   7.017   0.361   3.779
  179POPC  H14S21400   7.017   0.220   3.665
  179POPC  C21521401   6.872   0.209   3.826
  179POPC  H15R21402   6.921   0.112   3.848
  179POPC  H15S21403   6.774   0.186   3.780
  179POPC  C21621404   6.849   0.289   3.952
  179POPC  H16R21405   6.739   0.292   3.969
  179POPC  H16S21406   6.884   0.394   3.945
  179POPC  C21721407   6.907   0.221   4.073
  179POPC  H17R21408   7.013   0.249   4.086
  179POPC  H17S21409   6.905   0.111   4.058
  179POPC  C21821410   6.821   0.254   4.192
  179POPC  H18R21411   6.859   0.203   4.280
  179POPC  H18S21412   6.716   0.220   4.176
  179POPC  H18T21413   6.820   0.364   4.211
  179POPC   C3321414   7.404   0.628   3.254
  179POPC   H3X21415   7.355   0.688   3.333
  179POPC   H3Y21416   7.514   0.643   3.263
  179POPC   C3421417   7.363   0.484   3.286
  179POPC   H4X21418   7.447   0.414   3.265
  179POPC   H4Y21419   7.277   0.458   3.220
  179POPC   C3521420   7.316   0.465   3.431
  179POPC   H5X21421   7.246   0.548   3.457
  179POPC   H5Y21422   7.401   0.472   3.501
  179POPC   C3621423   7.242   0.333   3.451
  179POPC   H6X21424   7.191   0.305   3.356
  179POPC   H6Y21425   7.159   0.346   3.523
  179POPC   C3721426   7.330   0.217   3.500
  179POPC   H7X21427   7.418   0.206   3.434
  179POPC   H7Y21428   7.269   0.124   3.489
  179POPC   C3821429   7.377   0.228   3.648
  179POPC   H8X21430   7.455   0.305   3.650
  179POPC   H8Y21431   7.424   0.132   3.680
  179POPC   C3921432   7.268   0.271   3.747
  179POPC   H9X21433   7.190   0.195   3.748
  179POPC   H9Y21434   7.222   0.363   3.710
  179POPC  C31021435   7.298   0.282   3.896
  179POPC  H10X21436   7.381   0.215   3.925
  179POPC  H10Y21437   7.208   0.247   3.952
  179POPC  C31121438   7.322   0.426   3.942
  179POPC  H11X21439   7.416   0.461   3.897
  179POPC  H11Y21440   7.337   0.423   4.051
  179POPC  C31221441   7.221   0.535   3.903
  179POPC  H12X21442   7.127   0.523   3.961
  179POPC  H12Y21443   7.194   0.534   3.795
  179POPC  C31321444   7.286   0.671   3.931
  179POPC  H13X21445   7.214   0.751   3.905
  179POPC  H13Y21446   7.374   0.684   3.864
  179POPC  C31421447   7.333   0.676   4.077
  179POPC  H14X21448   7.429   0.620   4.087
  179POPC  H14Y21449   7.255   0.625   4.138
  179POPC  C31521450   7.349   0.815   4.136
  179POPC  H15X21451   7.417   0.875   4.073
  179POPC  H15Y21452   7.395   0.805   4.237
  179POPC  C31621453   7.215   0.885   4.151
  179POPC  H16X21454   7.229   0.994   4.164
  179POPC  H16Y21455   7.156   0.843   4.235
  179POPC  H16Z21456   7.157   0.869   4.059
  180POPC     N21457   0.839   7.747   2.212
  180POPC   C1221458   0.823   7.763   2.361
  180POPC  H12A21459   0.851   7.864   2.389
  180POPC  H12B21460   0.893   7.698   2.413
  180POPC   C1321461   0.720   7.807   2.145
  180POPC  H13A21462   0.710   7.913   2.166
  180POPC  H13B21463   0.722   7.792   2.038
  180POPC  H13C21464   0.632   7.755   2.184
  180POPC   C1421465   0.964   7.810   2.161
  180POPC  H14A21466   0.962   7.811   2.052
  180POPC  H14B21467   0.971   7.913   2.193
  180POPC  H14C21468   1.054   7.757   2.189
  180POPC   C1521469   0.837   7.602   2.170
  180POPC  H15A21470   0.822   7.592   2.064
  180POPC  H15B21471   0.752   7.552   2.218
  180POPC  H15C21472   0.926   7.547   2.196
  180POPC   C1121473   0.681   7.738   2.419
  180POPC  H11A21474   0.617   7.826   2.396
  180POPC  H11B21475   0.688   7.735   2.531
  180POPC     P21476   0.599   7.493   2.450
  180POPC   O1321477   0.570   7.377   2.365
  180POPC   O1421478   0.502   7.529   2.555
  180POPC   O1221479   0.620   7.622   2.362
  180POPC   O1121480   0.744   7.482   2.516
  180POPC    C121481   0.859   7.441   2.440
  180POPC    HA21482   0.919   7.528   2.409
  180POPC    HB21483   0.830   7.385   2.348
  180POPC    C221484   0.955   7.350   2.522
  180POPC    HS21485   1.009   7.285   2.449
  180POPC   O2121486   0.885   7.268   2.616
  180POPC   C2121487   0.781   7.209   2.563
  180POPC   O2221488   0.771   7.178   2.445
  180POPC   C2221489   0.685   7.174   2.674
  180POPC   H2R21490   0.705   7.068   2.698
  180POPC   H2S21491   0.584   7.184   2.630
  180POPC    C321492   1.060   7.426   2.607
  180POPC    HX21493   1.120   7.495   2.544
  180POPC    HY21494   1.129   7.351   2.651
  180POPC   O3121495   0.996   7.490   2.718
  180POPC   C3121496   0.946   7.609   2.690
  180POPC   O3221497   0.979   7.679   2.595
  180POPC   C3221498   0.853   7.653   2.802
  180POPC   H2X21499   0.860   7.582   2.887
  180POPC   H2Y21500   0.748   7.652   2.763
  180POPC   C2321501   0.693   7.258   2.806
  180POPC   H3R21502   0.793   7.304   2.823
  180POPC   H3S21503   0.676   7.192   2.893
  180POPC   C2421504   0.585   7.367   2.810
  180POPC   H4R21505   0.486   7.329   2.777
  180POPC   H4S21506   0.618   7.442   2.735
  180POPC   C2521507   0.573   7.441   2.943
  180POPC   H5R21508   0.539   7.544   2.920
  180POPC   H5S21509   0.673   7.449   2.992
  180POPC   C2621510   0.471   7.379   3.039
  180POPC   H6R21511   0.506   7.279   3.073
  180POPC   H6S21512   0.375   7.364   2.985
  180POPC   C2721513   0.445   7.473   3.158
  180POPC   H7R21514   0.398   7.566   3.117
  180POPC   H7S21515   0.541   7.505   3.204
  180POPC   C2821516   0.351   7.414   3.265
  180POPC   H8R21517   0.266   7.363   3.214
  180POPC   H8S21518   0.308   7.497   3.325
  180POPC   C2921519   0.428   7.318   3.352
  180POPC   H9121520   0.493   7.253   3.294
  180POPC  C21021521   0.432   7.309   3.485
  180POPC  H10121522   0.503   7.240   3.531
  180POPC  C21121523   0.359   7.392   3.587
  180POPC  H11R21524   0.260   7.349   3.612
  180POPC  H11S21525   0.347   7.495   3.547
  180POPC  C21221526   0.446   7.399   3.713
  180POPC  H12R21527   0.541   7.448   3.683
  180POPC  H12S21528   0.472   7.297   3.750
  180POPC  C21321529   0.390   7.479   3.831
  180POPC  H13R21530   0.324   7.413   3.892
  180POPC  H13S21531   0.329   7.565   3.797
  180POPC  C21421532   0.505   7.529   3.918
  180POPC  H14R21533   0.464   7.595   3.997
  180POPC  H14S21534   0.574   7.594   3.860
  180POPC  C21521535   0.583   7.410   3.976
  180POPC  H15R21536   0.638   7.356   3.896
  180POPC  H15S21537   0.510   7.338   4.016
  180POPC  C21621538   0.683   7.446   4.087
  180POPC  H16R21539   0.637   7.518   4.155
  180POPC  H16S21540   0.768   7.502   4.044
  180POPC  C21721541   0.730   7.321   4.163
  180POPC  H17R21542   0.839   7.311   4.146
  180POPC  H17S21543   0.683   7.230   4.120
  180POPC  C21821544   0.708   7.319   4.314
  180POPC  H18R21545   0.763   7.402   4.360
  180POPC  H18S21546   0.740   7.223   4.358
  180POPC  H18T21547   0.604   7.334   4.344
  180POPC   C3321548   0.896   7.794   2.843
  180POPC   H3X21549   0.841   7.867   2.781
  180POPC   H3Y21550   1.005   7.809   2.825
  180POPC   C3421551   0.874   7.825   2.991
  180POPC   H4X21552   0.897   7.934   3.003
  180POPC   H4Y21553   0.944   7.768   3.055
  180POPC   C3521554   0.733   7.802   3.043
  180POPC   H5X21555   0.728   7.700   3.087
  180POPC   H5Y21556   0.658   7.805   2.960
  180POPC   C3621557   0.698   7.907   3.149
  180POPC   H6X21558   0.658   7.997   3.098
  180POPC   H6Y21559   0.792   7.938   3.201
  180POPC   C3721560   0.602   7.854   3.255
  180POPC   H7X21561   0.530   7.783   3.209
  180POPC   H7Y21562   0.543   7.939   3.298
  180POPC   C3821563   0.681   7.787   3.367
  180POPC   H8X21564   0.748   7.862   3.415
  180POPC   H8Y21565   0.747   7.708   3.323
  180POPC   C3921566   0.593   7.724   3.473
  180POPC   H9X21567   0.538   7.637   3.431
  180POPC   H9Y21568   0.517   7.799   3.506
  180POPC  C31021569   0.675   7.681   3.594
  180POPC  H10X21570   0.603   7.659   3.675
  180POPC  H10Y21571   0.741   7.763   3.629
  180POPC  C31121572   0.760   7.556   3.567
  180POPC  H11X21573   0.843   7.580   3.496
  180POPC  H11Y21574   0.696   7.479   3.518
  180POPC  C31221575   0.818   7.499   3.696
  180POPC  H12X21576   0.734   7.485   3.767
  180POPC  H12Y21577   0.889   7.570   3.743
  180POPC  C31321578   0.884   7.363   3.675
  180POPC  H13X21579   0.980   7.378   3.621
  180POPC  H13Y21580   0.818   7.300   3.611
  180POPC  C31421581   0.909   7.286   3.805
  180POPC  H14X21582   0.978   7.204   3.781
  180POPC  H14Y21583   0.816   7.243   3.846
  180POPC  C31521584   0.992   7.354   3.912
  180POPC  H15X21585   0.931   7.430   3.964
  180POPC  H15Y21586   1.075   7.408   3.862
  180POPC  C31621587   1.049   7.251   4.011
  180POPC  H16X21588   1.091   7.301   4.100
  180POPC  H16Y21589   1.130   7.191   3.963
  180POPC  H16Z21590   0.970   7.180   4.044
  181POPI   C1221591   5.012   3.760   6.564
  181POPI    H221592   5.004   3.663   6.508
  181POPI    O221593   4.895   3.837   6.534
  181POPI   HO221594   4.924   3.928   6.523
  181POPI   C1321595   5.022   3.730   6.712
  181POPI    H321596   5.115   3.670   6.728
  181POPI    O321597   4.913   3.649   6.760
  181POPI   HO321598   4.898   3.569   6.708
  181POPI   C1421599   5.036   3.862   6.789
  181POPI    H421600   4.949   3.927   6.765
  181POPI    O421601   5.035   3.839   6.930
  181POPI   HO421602   5.056   3.745   6.942
  181POPI   C1521603   5.161   3.938   6.746
  181POPI    H521604   5.251   3.878   6.771
  181POPI    O521605   5.167   4.064   6.817
  181POPI   HO521606   5.169   4.046   6.913
  181POPI   C1621607   5.156   3.963   6.596
  181POPI    H621608   5.073   4.032   6.571
  181POPI    O621609   5.279   4.021   6.551
  181POPI   HO621610   5.273   4.002   6.456
  181POPI   C1121611   5.140   3.831   6.522
  181POPI    H121612   5.226   3.766   6.556
  181POPI     P21613   5.225   3.743   6.289
  181POPI   O1321614   5.153   3.615   6.298
  181POPI   O1421615   5.364   3.751   6.341
  181POPI   O1221616   5.140   3.853   6.380
  181POPI   O1121617   5.218   3.802   6.141
  181POPI    C121618   5.091   3.830   6.081
  181POPI    HA21619   5.093   3.935   6.043
  181POPI    HB21620   5.006   3.824   6.153
  181POPI    C221621   5.063   3.736   5.961
  181POPI    HS21622   5.098   3.634   5.989
  181POPI   O2121623   5.140   3.788   5.852
  181POPI   C2121624   5.133   3.735   5.733
  181POPI   O2221625   5.076   3.631   5.703
  181POPI   C2221626   5.204   3.832   5.637
  181POPI   H2R21627   5.304   3.792   5.616
  181POPI   H2S21628   5.217   3.930   5.687
  181POPI    C321629   4.910   3.726   5.928
  181POPI    HX21630   4.892   3.632   5.870
  181POPI    HY21631   4.858   3.712   6.025
  181POPI   O3121632   4.860   3.846   5.864
  181POPI   C3121633   4.812   3.830   5.741
  181POPI   O3221634   4.793   3.725   5.683
  181POPI   C3221635   4.785   3.970   5.682
  181POPI   H2X21636   4.871   4.035   5.708
  181POPI   H2Y21637   4.695   4.009   5.732
  181POPI   C2321638   5.119   3.851   5.510
  181POPI   H3R21639   5.031   3.909   5.546
  181POPI   H3S21640   5.083   3.754   5.470
  181POPI   C2421641   5.181   3.932   5.396
  181POPI   H4R21642   5.258   3.873   5.344
  181POPI   H4S21643   5.234   4.020   5.440
  181POPI   C2521644   5.074   3.986   5.299
  181POPI   H5R21645   5.120   4.059   5.229
  181POPI   H5S21646   5.001   4.044   5.359
  181POPI   C2621647   5.002   3.881   5.212
  181POPI   H6R21648   4.941   3.936   5.137
  181POPI   H6S21649   4.933   3.820   5.274
  181POPI   C2721650   5.101   3.788   5.139
  181POPI   H7R21651   5.142   3.719   5.216
  181POPI   H7S21652   5.185   3.850   5.101
  181POPI   C2821653   5.049   3.699   5.023
  181POPI   H8R21654   5.064   3.593   5.055
  181POPI   H8S21655   5.120   3.714   4.938
  181POPI   C2921656   4.906   3.713   4.977
  181POPI   H9121657   4.830   3.697   5.055
  181POPI  C21021658   4.865   3.749   4.854
  181POPI  H10121659   4.757   3.760   4.834
  181POPI  C21121660   4.954   3.785   4.737
  181POPI  H11R21661   5.049   3.832   4.772
  181POPI  H11S21662   4.903   3.863   4.677
  181POPI  C21221663   4.988   3.670   4.642
  181POPI  H12R21664   5.061   3.602   4.692
  181POPI  H12S21665   5.040   3.713   4.553
  181POPI  C21321666   4.867   3.589   4.595
  181POPI  H13R21667   4.822   3.537   4.683
  181POPI  H13S21668   4.901   3.511   4.524
  181POPI  C21421669   4.759   3.670   4.522
  181POPI  H14R21670   4.720   3.752   4.586
  181POPI  H14S21671   4.673   3.602   4.500
  181POPI  C21521672   4.810   3.727   4.388
  181POPI  H15R21673   4.862   3.644   4.335
  181POPI  H15S21674   4.886   3.805   4.409
  181POPI  C21621675   4.699   3.782   4.297
  181POPI  H16R21676   4.649   3.869   4.346
  181POPI  H16S21677   4.622   3.702   4.287
  181POPI  C21721678   4.746   3.820   4.155
  181POPI  H17R21679   4.680   3.766   4.084
  181POPI  H17S21680   4.850   3.784   4.140
  181POPI  C21821681   4.738   3.969   4.119
  181POPI  H18R21682   4.735   3.982   4.009
  181POPI  H18S21683   4.647   4.015   4.163
  181POPI  H18T21684   4.828   4.022   4.156
  181POPI   C3321685   4.763   3.971   5.529
  181POPI   H3X21686   4.687   3.896   5.499
  181POPI   H3Y21687   4.855   3.942   5.475
  181POPI   C3421688   4.722   4.109   5.476
  181POPI   H4X21689   4.797   4.186   5.507
  181POPI   H4Y21690   4.624   4.137   5.519
  181POPI   C3521691   4.713   4.104   5.324
  181POPI   H5X21692   4.640   4.025   5.296
  181POPI   H5Y21693   4.811   4.074   5.281
  181POPI   C3621694   4.672   4.235   5.256
  181POPI   H6X21695   4.758   4.305   5.257
  181POPI   H6Y21696   4.589   4.282   5.313
  181POPI   C3721697   4.625   4.211   5.112
  181POPI   H7X21698   4.611   4.308   5.059
  181POPI   H7Y21699   4.524   4.164   5.117
  181POPI   C3821700   4.714   4.118   5.027
  181POPI   H8X21701   4.662   4.103   4.930
  181POPI   H8Y21702   4.722   4.018   5.074
  181POPI   C3921703   4.856   4.168   5.001
  181POPI   H9X21704   4.920   4.158   5.091
  181POPI   H9Y21705   4.856   4.275   4.973
  181POPI  C31021706   4.920   4.092   4.885
  181POPI  H10X21707   4.910   3.985   4.907
  181POPI  H10Y21708   5.028   4.113   4.881
  181POPI  C31121709   4.853   4.124   4.751
  181POPI  H11X21710   4.799   4.221   4.762
  181POPI  H11Y21711   4.776   4.049   4.724
  181POPI  C31221712   4.954   4.136   4.637
  181POPI  H12X21713   4.997   4.036   4.617
  181POPI  H12Y21714   5.039   4.200   4.667
  181POPI  C31321715   4.886   4.194   4.513
  181POPI  H13X21716   4.936   4.285   4.476
  181POPI  H13Y21717   4.782   4.224   4.541
  181POPI  C31421718   4.880   4.091   4.402
  181POPI  H14X21719   4.815   4.133   4.322
  181POPI  H14Y21720   4.830   4.001   4.443
  181POPI  C31521721   5.019   4.055   4.347
  181POPI  H15X21722   5.011   3.964   4.282
  181POPI  H15Y21723   5.085   4.025   4.431
  181POPI  C31621724   5.089   4.166   4.268
  181POPI  H16X21725   5.063   4.267   4.307
  181POPI  H16Y21726   5.199   4.155   4.277
  181POPI  H16Z21727   5.062   4.162   4.161
  182POPI   C1221728   3.085   0.538   6.567
  182POPI    H221729   3.079   0.431   6.536
  182POPI    O221730   2.973   0.607   6.511
  182POPI   HO221731   2.937   0.544   6.445
  182POPI   C1321732   3.081   0.543   6.719
  182POPI    H321733   3.170   0.488   6.757
  182POPI    O321734   2.966   0.479   6.774
  182POPI   HO321735   2.955   0.526   6.859
  182POPI   C1421736   3.092   0.688   6.764
  182POPI    H421737   3.008   0.746   6.722
  182POPI    O421738   3.081   0.697   6.908
  182POPI   HO421739   3.102   0.787   6.939
  182POPI   C1521740   3.223   0.744   6.710
  182POPI    H521741   3.304   0.680   6.750
  182POPI    O521742   3.246   0.877   6.757
  182POPI   HO521743   3.321   0.870   6.818
  182POPI   C1621744   3.236   0.735   6.558
  182POPI    H621745   3.157   0.797   6.510
  182POPI    O621746   3.364   0.784   6.516
  182POPI   HO621747   3.345   0.853   6.449
  182POPI   C1121748   3.221   0.590   6.517
  182POPI    H121749   3.300   0.534   6.574
  182POPI     P21750   3.330   0.445   6.319
  182POPI   O1321751   3.255   0.319   6.349
  182POPI   O1421752   3.468   0.456   6.372
  182POPI   O1221753   3.237   0.571   6.375
  182POPI   O1121754   3.331   0.468   6.162
  182POPI    C121755   3.220   0.520   6.091
  182POPI    HA21756   3.161   0.595   6.149
  182POPI    HB21757   3.149   0.437   6.068
  182POPI    C221758   3.268   0.592   5.962
  182POPI    HS21759   3.179   0.617   5.900
  182POPI   O2121760   3.358   0.509   5.884
  182POPI   C2121761   3.303   0.393   5.853
  182POPI   O2221762   3.184   0.370   5.851
  182POPI   C2221763   3.410   0.289   5.821
  182POPI   H2R21764   3.444   0.248   5.919
  182POPI   H2S21765   3.496   0.337   5.771
  182POPI    C321766   3.339   0.726   5.997
  182POPI    HX21767   3.269   0.785   6.061
  182POPI    HY21768   3.429   0.702   6.058
  182POPI   O3121769   3.379   0.794   5.878
  182POPI   C3121770   3.323   0.911   5.849
  182POPI   O3221771   3.263   0.983   5.926
  182POPI   C3221772   3.338   0.931   5.699
  182POPI   H2X21773   3.398   0.849   5.654
  182POPI   H2Y21774   3.390   1.027   5.683
  182POPI   C2321775   3.349   0.174   5.736
  182POPI   H3R21776   3.259   0.134   5.789
  182POPI   H3S21777   3.421   0.091   5.726
  182POPI   C2421778   3.303   0.218   5.595
  182POPI   H4R21779   3.221   0.292   5.606
  182POPI   H4S21780   3.262   0.130   5.540
  182POPI   C2521781   3.416   0.279   5.512
  182POPI   H5R21782   3.498   0.205   5.505
  182POPI   H5S21783   3.455   0.370   5.565
  182POPI   C2621784   3.375   0.324   5.372
  182POPI   H6R21785   3.406   0.431   5.359
  182POPI   H6S21786   3.264   0.321   5.360
  182POPI   C2721787   3.439   0.243   5.258
  182POPI   H7R21788   3.387   0.145   5.247
  182POPI   H7S21789   3.545   0.221   5.284
  182POPI   C2821790   3.440   0.321   5.126
  182POPI   H8R21791   3.488   0.260   5.046
  182POPI   H8S21792   3.504   0.409   5.143
  182POPI   C2921793   3.301   0.363   5.084
  182POPI   H9121794   3.233   0.281   5.057
  182POPI  C21021795   3.258   0.490   5.074
  182POPI  H10121796   3.154   0.509   5.046
  182POPI  C21121797   3.334   0.617   5.101
  182POPI  H11R21798   3.410   0.604   5.181
  182POPI  H11S21799   3.263   0.694   5.138
  182POPI  C21221800   3.403   0.671   4.974
  182POPI  H12R21801   3.492   0.607   4.953
  182POPI  H12S21802   3.441   0.774   4.994
  182POPI  C21321803   3.318   0.671   4.845
  182POPI  H13R21804   3.295   0.566   4.817
  182POPI  H13S21805   3.379   0.714   4.763
  182POPI  C21421806   3.186   0.749   4.855
  182POPI  H14R21807   3.208   0.857   4.870
  182POPI  H14S21808   3.128   0.714   4.943
  182POPI  C21521809   3.096   0.731   4.731
  182POPI  H15R21810   3.002   0.789   4.747
  182POPI  H15S21811   3.067   0.626   4.720
  182POPI  C21621812   3.161   0.773   4.598
  182POPI  H16R21813   3.237   0.699   4.568
  182POPI  H16S21814   3.211   0.871   4.614
  182POPI  C21721815   3.057   0.790   4.486
  182POPI  H17R21816   3.102   0.852   4.405
  182POPI  H17S21817   2.973   0.848   4.529
  182POPI  C21821818   3.001   0.661   4.426
  182POPI  H18R21819   2.921   0.620   4.491
  182POPI  H18S21820   2.955   0.682   4.326
  182POPI  H18T21821   3.080   0.585   4.413
  182POPI   C3321822   3.198   0.935   5.636
  182POPI   H3X21823   3.209   0.955   5.527
  182POPI   H3Y21824   3.146   1.024   5.679
  182POPI   C3421825   3.111   0.810   5.660
  182POPI   H4X21826   3.005   0.838   5.638
  182POPI   H4Y21827   3.111   0.784   5.768
  182POPI   C3521828   3.145   0.684   5.578
  182POPI   H5X21829   3.250   0.655   5.597
  182POPI   H5Y21830   3.135   0.703   5.469
  182POPI   C3621831   3.051   0.567   5.616
  182POPI   H6X21832   2.952   0.603   5.650
  182POPI   H6Y21833   3.098   0.519   5.704
  182POPI   C3721834   3.030   0.460   5.508
  182POPI   H7X21835   3.007   0.363   5.559
  182POPI   H7Y21836   3.126   0.446   5.453
  182POPI   C3821837   2.913   0.486   5.411
  182POPI   H8X21838   2.889   0.595   5.411
  182POPI   H8Y21839   2.825   0.431   5.450
  182POPI   C3921840   2.942   0.442   5.266
  182POPI   H9X21841   3.009   0.353   5.270
  182POPI   H9Y21842   3.000   0.522   5.214
  182POPI  C31021843   2.818   0.404   5.183
  182POPI  H10X21844   2.735   0.374   5.251
  182POPI  H10Y21845   2.842   0.313   5.122
  182POPI  C31121846   2.764   0.513   5.089
  182POPI  H11X21847   2.731   0.600   5.150
  182POPI  H11Y21848   2.674   0.472   5.037
  182POPI  C31221849   2.864   0.562   4.982
  182POPI  H12X21850   2.933   0.633   5.032
  182POPI  H12Y21851   2.810   0.619   4.903
  182POPI  C31321852   2.950   0.451   4.917
  182POPI  H13X21853   2.993   0.386   4.996
  182POPI  H13Y21854   3.037   0.497   4.867
  182POPI  C31421855   2.878   0.363   4.814
  182POPI  H14X21856   2.779   0.330   4.851
  182POPI  H14Y21857   2.941   0.273   4.799
  182POPI  C31521858   2.868   0.428   4.675
  182POPI  H15X21859   2.971   0.456   4.642
  182POPI  H15Y21860   2.808   0.521   4.682
  182POPI  C31621861   2.810   0.334   4.570
  182POPI  H16X21862   2.708   0.301   4.600
  182POPI  H16Y21863   2.803   0.384   4.471
  182POPI  H16Z21864   2.874   0.244   4.560
  183POPI   C1221865  -0.064   4.728   6.472
  183POPI    H221866  -0.098   4.622   6.460
  183POPI    O221867  -0.140   4.808   6.378
  183POPI   HO221868  -0.209   4.752   6.340
  183POPI   C1321869  -0.089   4.768   6.617
  183POPI    H321870  -0.032   4.699   6.682
  183POPI    O321871  -0.227   4.750   6.646
  183POPI   HO321872  -0.237   4.726   6.741
  183POPI   C1421873  -0.042   4.911   6.640
  183POPI    H421874  -0.105   4.981   6.580
  183POPI    O421875  -0.059   4.941   6.780
  183POPI   HO421876  -0.154   4.936   6.803
  183POPI   C1521877   0.106   4.924   6.604
  183POPI    H521878   0.169   4.869   6.678
  183POPI    O521879   0.140   5.065   6.608
  183POPI   HO521880   0.084   5.112   6.542
  183POPI   C1621881   0.137   4.876   6.463
  183POPI    H621882   0.091   4.941   6.385
  183POPI    O621883   0.279   4.873   6.444
  183POPI   HO621884   0.309   4.938   6.379
  183POPI   C1121885   0.086   4.733   6.447
  183POPI    H121886   0.137   4.670   6.524
  183POPI     P21887   0.131   4.524   6.285
  183POPI   O1321888   0.008   4.445   6.308
  183POPI   O1421889   0.252   4.474   6.355
  183POPI   O1221890   0.112   4.683   6.317
  183POPI   O1121891   0.163   4.520   6.131
  183POPI    C121892   0.212   4.637   6.066
  183POPI    HA21893   0.258   4.603   5.971
  183POPI    HB21894   0.292   4.689   6.124
  183POPI    C221895   0.100   4.738   6.028
  183POPI    HS21896   0.039   4.767   6.116
  183POPI   O2121897   0.020   4.658   5.942
  183POPI   C2121898  -0.066   4.700   5.857
  183POPI   O2221899  -0.094   4.814   5.826
  183POPI   C2221900  -0.130   4.569   5.803
  183POPI   H2R21901  -0.239   4.572   5.819
  183POPI   H2S21902  -0.093   4.483   5.861
  183POPI    C321903   0.156   4.869   5.966
  183POPI    HX21904   0.075   4.945   5.967
  183POPI    HY21905   0.237   4.909   6.031
  183POPI   O3121906   0.200   4.853   5.832
  183POPI   C3121907   0.315   4.802   5.804
  183POPI   O3221908   0.407   4.774   5.880
  183POPI   C3221909   0.306   4.757   5.661
  183POPI   H2X21910   0.407   4.750   5.617
  183POPI   H2Y21911   0.245   4.829   5.603
  183POPI   C2321912  -0.100   4.544   5.655
  183POPI   H3R21913  -0.004   4.487   5.649
  183POPI   H3S21914  -0.086   4.641   5.602
  183POPI   C2421915  -0.204   4.463   5.577
  183POPI   H4R21916  -0.305   4.508   5.582
  183POPI   H4S21917  -0.209   4.360   5.619
  183POPI   C2521918  -0.156   4.457   5.432
  183POPI   H5R21919  -0.186   4.365   5.379
  183POPI   H5S21920  -0.045   4.452   5.436
  183POPI   C2621921  -0.197   4.580   5.349
  183POPI   H6R21922  -0.168   4.673   5.401
  183POPI   H6S21923  -0.307   4.580   5.333
  183POPI   C2721924  -0.126   4.574   5.214
  183POPI   H7R21925  -0.158   4.479   5.167
  183POPI   H7S21926  -0.017   4.571   5.234
  183POPI   C2821927  -0.155   4.686   5.113
  183POPI   H8R21928  -0.263   4.711   5.120
  183POPI   H8S21929  -0.137   4.646   5.011
  183POPI   C2921930  -0.065   4.803   5.144
  183POPI   H9121931  -0.073   4.841   5.247
  183POPI  C21021932   0.023   4.861   5.060
  183POPI  H10121933   0.081   4.947   5.097
  183POPI  C21121934   0.050   4.823   4.916
  183POPI  H11R21935   0.035   4.715   4.896
  183POPI  H11S21936   0.156   4.846   4.891
  183POPI  C21221937  -0.045   4.904   4.826
  183POPI  H12R21938  -0.056   5.006   4.868
  183POPI  H12S21939  -0.144   4.855   4.830
  183POPI  C21321940  -0.007   4.922   4.677
  183POPI  H13R21941  -0.086   4.984   4.629
  183POPI  H13S21942  -0.013   4.822   4.628
  183POPI  C21421943   0.128   4.988   4.646
  183POPI  H14R21944   0.189   4.994   4.738
  183POPI  H14S21945   0.111   5.093   4.612
  183POPI  C21521946   0.209   4.913   4.538
  183POPI  H15R21947   0.301   4.968   4.513
  183POPI  H15S21948   0.150   4.909   4.444
  183POPI  C21621949   0.241   4.769   4.582
  183POPI  H16R21950   0.171   4.705   4.527
  183POPI  H16S21951   0.220   4.756   4.691
  183POPI  C21721952   0.380   4.712   4.551
  183POPI  H17R21953   0.392   4.617   4.608
  183POPI  H17S21954   0.460   4.780   4.586
  183POPI  C21821955   0.397   4.681   4.403
  183POPI  H18R21956   0.375   4.772   4.342
  183POPI  H18S21957   0.500   4.647   4.380
  183POPI  H18T21958   0.326   4.602   4.372
  183POPI   C3321959   0.233   4.622   5.669
  183POPI   H3X21960   0.129   4.641   5.636
  183POPI   H3Y21961   0.227   4.577   5.771
  183POPI   C3421962   0.298   4.517   5.582
  183POPI   H4X21963   0.268   4.416   5.618
  183POPI   H4Y21964   0.409   4.523   5.591
  183POPI   C3521965   0.250   4.536   5.440
  183POPI   H5X21966   0.294   4.628   5.397
  183POPI   H5Y21967   0.140   4.549   5.440
  183POPI   C3621968   0.285   4.412   5.361
  183POPI   H6X21969   0.240   4.325   5.413
  183POPI   H6Y21970   0.395   4.398   5.361
  183POPI   C3721971   0.233   4.422   5.219
  183POPI   H7X21972   0.311   4.385   5.149
  183POPI   H7Y21973   0.214   4.529   5.194
  183POPI   C3821974   0.105   4.348   5.191
  183POPI   H8X21975   0.025   4.373   5.262
  183POPI   H8Y21976   0.117   4.240   5.202
  183POPI   C3921977   0.068   4.384   5.048
  183POPI   H9X21978   0.159   4.372   4.984
  183POPI   H9Y21979   0.042   4.491   5.039
  183POPI  C31021980  -0.043   4.297   4.993
  183POPI  H10X21981  -0.136   4.316   5.050
  183POPI  H10Y21982  -0.015   4.190   5.001
  183POPI  C31121983  -0.071   4.335   4.850
  183POPI  H11X21984  -0.073   4.446   4.847
  183POPI  H11Y21985  -0.173   4.302   4.826
  183POPI  C31221986   0.030   4.272   4.755
  183POPI  H12X21987   0.008   4.164   4.744
  183POPI  H12Y21988   0.130   4.277   4.801
  183POPI  C31321989   0.034   4.336   4.616
  183POPI  H13X21990  -0.061   4.309   4.565
  183POPI  H13Y21991   0.116   4.290   4.557
  183POPI  C31421992   0.048   4.489   4.613
  183POPI  H14X21993   0.156   4.513   4.610
  183POPI  H14Y21994   0.011   4.541   4.704
  183POPI  C31521995  -0.027   4.548   4.493
  183POPI  H15X21996  -0.021   4.659   4.493
  183POPI  H15Y21997  -0.135   4.522   4.500
  183POPI  C31621998   0.033   4.495   4.364
  183POPI  H16X21999   0.006   4.388   4.347
  183POPI  H16Y22000   0.001   4.554   4.276
  183POPI  H16Z22001   0.142   4.506   4.372
  184POPI   C1222002   0.404   0.672   6.505
  184POPI    H222003   0.391   0.757   6.434
  184POPI    O222004   0.536   0.619   6.486
  184POPI   HO222005   0.532   0.568   6.402
  184POPI   C1322006   0.374   0.724   6.646
  184POPI    H322007   0.266   0.753   6.649
  184POPI    O322008   0.449   0.842   6.678
  184POPI   HO322009   0.404   0.918   6.638
  184POPI   C1422010   0.385   0.612   6.747
  184POPI    H422011   0.490   0.576   6.757
  184POPI    O422012   0.342   0.665   6.873
  184POPI   HO422013   0.249   0.697   6.860
  184POPI   C1522014   0.293   0.496   6.710
  184POPI    H522015   0.186   0.528   6.714
  184POPI    O522016   0.313   0.390   6.802
  184POPI   HO522017   0.241   0.390   6.867
  184POPI   C1622018   0.321   0.446   6.569
  184POPI    H622019   0.426   0.411   6.565
  184POPI    O622020   0.239   0.334   6.534
  184POPI   HO622021   0.172   0.370   6.472
  184POPI   C1122022   0.303   0.565   6.474
  184POPI    H122023   0.204   0.611   6.503
  184POPI     P22024   0.157   0.525   6.260
  184POPI   O1322025   0.093   0.659   6.260
  184POPI   O1422026   0.085   0.421   6.338
  184POPI   O1222027   0.307   0.538   6.332
  184POPI   O1122028   0.187   0.483   6.112
  184POPI    C122029   0.251   0.360   6.079
  184POPI    HA22030   0.213   0.328   5.980
  184POPI    HB22031   0.226   0.279   6.151
  184POPI    C222032   0.407   0.375   6.071
  184POPI    HS22033   0.442   0.376   6.177
  184POPI   O2122034   0.444   0.497   6.003
  184POPI   C2122035   0.568   0.538   6.032
  184POPI   O2222036   0.641   0.487   6.116
  184POPI   C2222037   0.613   0.655   5.944
  184POPI   H2R22038   0.707   0.625   5.892
  184POPI   H2S22039   0.638   0.738   6.014
  184POPI    C322040   0.471   0.252   6.000
  184POPI    HX22041   0.581   0.266   5.987
  184POPI    HY22042   0.457   0.164   6.066
  184POPI   O3122043   0.402   0.226   5.877
  184POPI   C3122044   0.453   0.278   5.766
  184POPI   O3222045   0.566   0.322   5.753
  184POPI   C3222046   0.350   0.261   5.654
  184POPI   H2X22047   0.398   0.286   5.558
  184POPI   H2Y22048   0.269   0.334   5.674
  184POPI   C2322049   0.513   0.710   5.840
  184POPI   H3R22050   0.546   0.813   5.812
  184POPI   H3S22051   0.413   0.716   5.886
  184POPI   C2422052   0.507   0.631   5.708
  184POPI   H4R22053   0.467   0.531   5.733
  184POPI   H4S22054   0.609   0.620   5.665
  184POPI   C2522055   0.414   0.694   5.604
  184POPI   H5R22056   0.452   0.793   5.571
  184POPI   H5S22057   0.318   0.710   5.655
  184POPI   C2622058   0.378   0.605   5.484
  184POPI   H6R22059   0.449   0.520   5.480
  184POPI   H6S22060   0.391   0.665   5.392
  184POPI   C2722061   0.232   0.555   5.492
  184POPI   H7R22062   0.161   0.636   5.463
  184POPI   H7S22063   0.210   0.532   5.599
  184POPI   C2822064   0.204   0.425   5.413
  184POPI   H8R22065   0.143   0.358   5.478
  184POPI   H8S22066   0.302   0.373   5.400
  184POPI   C2922067   0.136   0.437   5.280
  184POPI   H9122068   0.028   0.416   5.280
  184POPI  C21022069   0.199   0.467   5.166
  184POPI  H10122070   0.141   0.477   5.073
  184POPI  C21122071   0.347   0.493   5.155
  184POPI  H11R22072   0.388   0.428   5.075
  184POPI  H11S22073   0.404   0.471   5.247
  184POPI  C21222074   0.369   0.640   5.120
  184POPI  H12R22075   0.323   0.708   5.195
  184POPI  H12S22076   0.315   0.653   5.024
  184POPI  C21322077   0.514   0.682   5.095
  184POPI  H13R22078   0.572   0.675   5.190
  184POPI  H13S22079   0.516   0.788   5.061
  184POPI  C21422080   0.580   0.595   4.989
  184POPI  H14R22081   0.593   0.494   5.033
  184POPI  H14S22082   0.681   0.634   4.965
  184POPI  C21522083   0.500   0.580   4.859
  184POPI  H15R22084   0.502   0.675   4.801
  184POPI  H15S22085   0.393   0.553   4.875
  184POPI  C21622086   0.559   0.465   4.781
  184POPI  H16R22087   0.544   0.372   4.840
  184POPI  H16S22088   0.669   0.481   4.772
  184POPI  C21722089   0.503   0.442   4.643
  184POPI  H17R22090   0.506   0.534   4.581
  184POPI  H17S22091   0.397   0.408   4.649
  184POPI  C21822092   0.590   0.334   4.583
  184POPI  H18R22093   0.531   0.269   4.515
  184POPI  H18S22094   0.675   0.381   4.529
  184POPI  H18T22095   0.632   0.269   4.662
  184POPI   C3322096   0.292   0.117   5.657
  184POPI   H3X22097   0.197   0.115   5.714
  184POPI   H3Y22098   0.367   0.061   5.716
  184POPI   C3422099   0.288   0.024   5.535
  184POPI   H4X22100   0.245  -0.073   5.570
  184POPI   H4Y22101   0.390  -0.001   5.503
  184POPI   C3522102   0.206   0.062   5.415
  184POPI   H5X22103   0.213   0.170   5.390
  184POPI   H5Y22104   0.105   0.039   5.453
  184POPI   C3622105   0.244  -0.023   5.292
  184POPI   H6X22106   0.192  -0.119   5.290
  184POPI   H6Y22107   0.346  -0.062   5.314
  184POPI   C3722108   0.253   0.053   5.156
  184POPI   H7X22109   0.332   0.000   5.101
  184POPI   H7Y22110   0.286   0.158   5.172
  184POPI   C3822111   0.132   0.051   5.061
  184POPI   H8X22112   0.044   0.090   5.116
  184POPI   H8Y22113   0.117  -0.054   5.030
  184POPI   C3922114   0.138   0.139   4.936
  184POPI   H9X22115   0.207   0.098   4.861
  184POPI   H9Y22116   0.173   0.240   4.966
  184POPI  C31022117   0.001   0.154   4.870
  184POPI  H10X22118  -0.078   0.171   4.947
  184POPI  H10Y22119  -0.027   0.061   4.814
  184POPI  C31122120   0.002   0.272   4.773
  184POPI  H11X22121   0.007   0.367   4.830
  184POPI  H11Y22122  -0.091   0.269   4.713
  184POPI  C31222123   0.123   0.271   4.682
  184POPI  H12X22124   0.143   0.164   4.660
  184POPI  H12Y22125   0.212   0.311   4.735
  184POPI  C31322126   0.096   0.349   4.553
  184POPI  H13X22127   0.186   0.411   4.529
  184POPI  H13Y22128   0.010   0.418   4.566
  184POPI  C31422129   0.071   0.254   4.437
  184POPI  H14X22130   0.054   0.315   4.346
  184POPI  H14Y22131  -0.021   0.194   4.454
  184POPI  C31522132   0.191   0.160   4.416
  184POPI  H15X22133   0.192   0.077   4.490
  184POPI  H15Y22134   0.285   0.219   4.430
  184POPI  C31622135   0.188   0.099   4.279
  184POPI  H16X22136   0.164  -0.008   4.283
  184POPI  H16Y22137   0.109   0.150   4.222
  184POPI  H16Z22138   0.283   0.106   4.224
  185POPI   C1222139   7.515   7.601   6.590
  185POPI    H222140   7.475   7.701   6.563
  185POPI    O222141   7.655   7.603   6.567
  185POPI   HO222142   7.669   7.636   6.476
  185POPI   C1322143   7.485   7.577   6.737
  185POPI    H322144   7.374   7.582   6.748
  185POPI    O322145   7.541   7.680   6.820
  185POPI   HO322146   7.580   7.746   6.761
  185POPI   C1422147   7.533   7.439   6.778
  185POPI    H422148   7.642   7.432   6.757
  185POPI    O422149   7.513   7.413   6.918
  185POPI   HO422150   7.530   7.491   6.974
  185POPI   C1522151   7.466   7.332   6.692
  185POPI    H522152   7.356   7.336   6.709
  185POPI    O522153   7.512   7.205   6.739
  185POPI   HO522154   7.532   7.227   6.831
  185POPI   C1622155   7.494   7.355   6.545
  185POPI    H622156   7.603   7.346   6.526
  185POPI    O622157   7.429   7.255   6.465
  185POPI   HO622158   7.334   7.260   6.480
  185POPI   C1122159   7.448   7.494   6.505
  185POPI    H122160   7.337   7.501   6.518
  185POPI     P22161   7.416   7.634   6.274
  185POPI   O1322162   7.456   7.766   6.325
  185POPI   O1422163   7.271   7.607   6.267
  185POPI   O1222164   7.483   7.518   6.369
  185POPI   O1122165   7.488   7.597   6.139
  185POPI    C122166   7.491   7.457   6.105
  185POPI    HA22167   7.425   7.392   6.169
  185POPI    HB22168   7.594   7.417   6.117
  185POPI    C222169   7.441   7.436   5.962
  185POPI    HS22170   7.529   7.451   5.895
  185POPI   O2122171   7.333   7.525   5.926
  185POPI   C2122172   7.370   7.639   5.871
  185POPI   O2222173   7.484   7.682   5.863
  185POPI   C2222174   7.252   7.691   5.786
  185POPI   H2R22175   7.167   7.711   5.854
  185POPI   H2S22176   7.225   7.607   5.718
  185POPI    C322177   7.388   7.292   5.946
  185POPI    HX22178   7.470   7.217   5.958
  185POPI    HY22179   7.313   7.274   6.026
  185POPI   O3122180   7.321   7.280   5.819
  185POPI   C3122181   7.406   7.297   5.719
  185POPI   O3222182   7.527   7.280   5.725
  185POPI   C3222183   7.332   7.344   5.595
  185POPI   H2X22184   7.360   7.450   5.579
  185POPI   H2Y22185   7.223   7.337   5.611
  185POPI   C2322186   7.290   7.814   5.700
  185POPI   H3R22187   7.400   7.817   5.684
  185POPI   H3S22188   7.265   7.907   5.754
  185POPI   C2422189   7.224   7.817   5.561
  185POPI   H4R22190   7.114   7.816   5.568
  185POPI   H4S22191   7.252   7.722   5.510
  185POPI   C2522192   7.273   7.938   5.478
  185POPI   H5R22193   7.373   7.968   5.515
  185POPI   H5S22194   7.210   8.027   5.493
  185POPI   C2622195   7.280   7.912   5.327
  185POPI   H6R22196   7.261   8.006   5.271
  185POPI   H6S22197   7.201   7.839   5.298
  185POPI   C2722198   7.418   7.861   5.287
  185POPI   H7R22199   7.489   7.948   5.292
  185POPI   H7S22200   7.416   7.826   5.181
  185POPI   C2822201   7.470   7.753   5.381
  185POPI   H8R22202   7.404   7.666   5.390
  185POPI   H8S22203   7.485   7.793   5.484
  185POPI   C2922204   7.602   7.713   5.330
  185POPI   H9122205   7.674   7.794   5.348
  185POPI  C21022206   7.632   7.622   5.238
  185POPI  H10122207   7.735   7.603   5.213
  185POPI  C21122208   7.545   7.535   5.159
  185POPI  H11R22209   7.442   7.558   5.186
  185POPI  H11S22210   7.571   7.428   5.178
  185POPI  C21222211   7.550   7.568   5.010
  185POPI  H12R22212   7.652   7.584   4.971
  185POPI  H12S22213   7.493   7.663   4.998
  185POPI  C21322214   7.485   7.458   4.927
  185POPI  H13R22215   7.398   7.417   4.981
  185POPI  H13S22216   7.555   7.374   4.911
  185POPI  C21422217   7.437   7.518   4.795
  185POPI  H14R22218   7.525   7.548   4.733
  185POPI  H14S22219   7.380   7.611   4.818
  185POPI  C21522220   7.346   7.423   4.718
  185POPI  H15R22221   7.305   7.476   4.629
  185POPI  H15S22222   7.261   7.394   4.784
  185POPI  C21622223   7.419   7.296   4.674
  185POPI  H16R22224   7.450   7.241   4.766
  185POPI  H16S22225   7.512   7.326   4.619
  185POPI  C21722226   7.335   7.202   4.587
  185POPI  H17R22227   7.233   7.245   4.575
  185POPI  H17S22228   7.324   7.105   4.641
  185POPI  C21822229   7.397   7.174   4.450
  185POPI  H18R22230   7.333   7.103   4.393
  185POPI  H18S22231   7.407   7.269   4.392
  185POPI  H18T22232   7.497   7.129   4.461
  185POPI   C3322233   7.383   7.255   5.481
  185POPI   H3X22234   7.400   7.151   5.517
  185POPI   H3Y22235   7.485   7.292   5.452
  185POPI   C3422236   7.294   7.244   5.357
  185POPI   H4X22237   7.190   7.217   5.379
  185POPI   H4Y22238   7.338   7.155   5.303
  185POPI   C3522239   7.313   7.360   5.259
  185POPI   H5X22240   7.327   7.318   5.157
  185POPI   H5Y22241   7.411   7.397   5.295
  185POPI   C3622242   7.219   7.483   5.254
  185POPI   H6X22243   7.269   7.570   5.298
  185POPI   H6Y22244   7.130   7.471   5.315
  185POPI   C3722245   7.188   7.533   5.111
  185POPI   H7X22246   7.197   7.447   5.043
  185POPI   H7Y22247   7.267   7.604   5.077
  185POPI   C3822248   7.055   7.607   5.103
  185POPI   H8X22249   7.070   7.706   5.053
  185POPI   H8Y22250   7.024   7.628   5.208
  185POPI   C3922251   6.942   7.534   5.028
  185POPI   H9X22252   6.860   7.603   5.002
  185POPI   H9Y22253   6.891   7.462   5.095
  185POPI  C31022254   6.989   7.469   4.899
  185POPI  H10X22255   6.910   7.397   4.865
  185POPI  H10Y22256   7.078   7.405   4.907
  185POPI  C31122257   7.013   7.576   4.795
  185POPI  H11X22258   7.115   7.620   4.802
  185POPI  H11Y22259   6.941   7.659   4.812
  185POPI  C31222260   6.986   7.521   4.656
  185POPI  H12X22261   6.889   7.469   4.665
  185POPI  H12Y22262   7.064   7.447   4.628
  185POPI  C31322263   6.975   7.634   4.555
  185POPI  H13X22264   7.064   7.699   4.573
  185POPI  H13Y22265   6.885   7.696   4.575
  185POPI  C31422266   6.974   7.591   4.409
  185POPI  H14X22267   6.871   7.563   4.377
  185POPI  H14Y22268   7.040   7.502   4.392
  185POPI  C31522269   7.027   7.708   4.327
  185POPI  H15X22270   6.985   7.800   4.371
  185POPI  H15Y22271   6.994   7.700   4.222
  185POPI  C31622272   7.177   7.719   4.334
  185POPI  H16X22273   7.223   7.617   4.332
  185POPI  H16Y22274   7.218   7.779   4.250
  185POPI  H16Z22275   7.209   7.766   4.429
  186POPI   C1222276   2.928   1.455   2.049
  186POPI    H222277   2.844   1.414   2.110
  186POPI    O222278   3.047   1.407   2.110
  186POPI   HO222279   3.025   1.314   2.125
  186POPI   C1322280   2.911   1.402   1.908
  186POPI    H322281   2.809   1.424   1.871
  186POPI    O322282   2.932   1.260   1.909
  186POPI   HO322283   2.855   1.209   1.937
  186POPI   C1422284   3.014   1.468   1.814
  186POPI    H422285   3.115   1.441   1.853
  186POPI    O422286   3.005   1.414   1.682
  186POPI   HO422287   3.077   1.351   1.676
  186POPI   C1522288   3.003   1.620   1.816
  186POPI    H522289   2.899   1.648   1.784
  186POPI    O522290   3.092   1.685   1.726
  186POPI   HO522291   3.127   1.757   1.781
  186POPI   C1622292   3.023   1.669   1.960
  186POPI    H622293   3.123   1.636   1.997
  186POPI    O622294   3.018   1.811   1.968
  186POPI   HO622295   2.952   1.825   2.036
  186POPI   C1122296   2.915   1.607   2.048
  186POPI    H122297   2.818   1.630   1.997
  186POPI     P22298   2.769   1.682   2.257
  186POPI   O1322299   2.680   1.563   2.249
  186POPI   O1422300   2.719   1.808   2.195
  186POPI   O1222301   2.915   1.649   2.185
  186POPI   O1122302   2.817   1.709   2.406
  186POPI    C122303   2.914   1.806   2.443
  186POPI    HA22304   2.897   1.829   2.551
  186POPI    HB22305   2.899   1.900   2.385
  186POPI    C222306   3.065   1.767   2.434
  186POPI    HS22307   3.091   1.743   2.329
  186POPI   O2122308   3.089   1.653   2.519
  186POPI   C2122309   3.201   1.634   2.585
  186POPI   O2222310   3.307   1.694   2.573
  186POPI   C2222311   3.183   1.516   2.679
  186POPI   H2R22312   3.262   1.442   2.658
  186POPI   H2S22313   3.083   1.471   2.661
  186POPI    C322314   3.145   1.894   2.476
  186POPI    HX22315   3.253   1.882   2.451
  186POPI    HY22316   3.106   1.980   2.417
  186POPI   O3122317   3.125   1.918   2.617
  186POPI   C3122318   3.181   2.028   2.663
  186POPI   O3222319   3.245   2.106   2.594
  186POPI   C3222320   3.155   2.041   2.813
  186POPI   H2X22321   3.060   2.092   2.827
  186POPI   H2Y22322   3.229   2.110   2.856
  186POPI   C2322323   3.192   1.569   2.821
  186POPI   H3R22324   3.124   1.657   2.829
  186POPI   H3S22325   3.295   1.603   2.846
  186POPI   C2422326   3.139   1.472   2.925
  186POPI   H4R22327   3.199   1.379   2.928
  186POPI   H4S22328   3.034   1.444   2.900
  186POPI   C2522329   3.141   1.540   3.061
  186POPI   H5R22330   3.094   1.641   3.052
  186POPI   H5S22331   3.247   1.554   3.091
  186POPI   C2622332   3.062   1.461   3.163
  186POPI   H6R22333   3.107   1.359   3.169
  186POPI   H6S22334   2.958   1.451   3.124
  186POPI   C2722335   3.055   1.520   3.304
  186POPI   H7R22336   2.986   1.457   3.364
  186POPI   H7S22337   3.008   1.621   3.300
  186POPI   C2822338   3.191   1.522   3.374
  186POPI   H8R22339   3.253   1.436   3.340
  186POPI   H8S22340   3.173   1.505   3.482
  186POPI   C2922341   3.261   1.653   3.347
  186POPI   H9122342   3.294   1.673   3.244
  186POPI  C21022343   3.290   1.743   3.441
  186POPI  H10122344   3.342   1.836   3.414
  186POPI  C21122345   3.258   1.724   3.587
  186POPI  H11R22346   3.289   1.623   3.622
  186POPI  H11S22347   3.149   1.735   3.606
  186POPI  C21222348   3.337   1.828   3.665
  186POPI  H12R22349   3.293   1.928   3.642
  186POPI  H12S22350   3.444   1.829   3.633
  186POPI  C21322351   3.335   1.807   3.816
  186POPI  H13R22352   3.398   1.887   3.862
  186POPI  H13S22353   3.381   1.709   3.841
  186POPI  C21422354   3.194   1.815   3.876
  186POPI  H14R22355   3.138   1.723   3.849
  186POPI  H14S22356   3.139   1.902   3.834
  186POPI  C21522357   3.201   1.829   4.028
  186POPI  H15R22358   3.201   1.937   4.055
  186POPI  H15S22359   3.297   1.787   4.064
  186POPI  C21622360   3.087   1.757   4.100
  186POPI  H16R22361   3.091   1.648   4.075
  186POPI  H16S22362   2.989   1.796   4.063
  186POPI  C21722363   3.098   1.775   4.251
  186POPI  H17R22364   3.106   1.884   4.274
  186POPI  H17S22365   3.192   1.727   4.286
  186POPI  C21822366   2.980   1.717   4.327
  186POPI  H18R22367   2.885   1.763   4.293
  186POPI  H18S22368   2.974   1.607   4.310
  186POPI  H18T22369   2.992   1.736   4.435
  186POPI   C3322370   3.155   1.906   2.891
  186POPI   H3X22371   3.235   1.840   2.849
  186POPI   H3Y22372   3.057   1.855   2.876
  186POPI   C3422373   3.184   1.917   3.042
  186POPI   H4X22374   3.282   1.965   3.057
  186POPI   H4Y22375   3.191   1.817   3.089
  186POPI   C3522376   3.083   2.002   3.117
  186POPI   H5X22377   2.980   1.966   3.097
  186POPI   H5Y22378   3.093   2.104   3.074
  186POPI   C3622379   3.108   2.011   3.269
  186POPI   H6X22380   3.100   2.117   3.300
  186POPI   H6Y22381   3.211   1.978   3.292
  186POPI   C3722382   3.005   1.928   3.349
  186POPI   H7X22383   3.036   1.822   3.346
  186POPI   H7Y22384   2.906   1.936   3.300
  186POPI   C3822385   2.993   1.974   3.495
  186POPI   H8X22386   2.957   2.079   3.498
  186POPI   H8Y22387   3.094   1.972   3.541
  186POPI   C3922388   2.899   1.886   3.579
  186POPI   H9X22389   2.906   1.920   3.685
  186POPI   H9Y22390   2.933   1.780   3.574
  186POPI  C31022391   2.752   1.892   3.536
  186POPI  H10X22392   2.742   1.842   3.437
  186POPI  H10Y22393   2.721   1.997   3.523
  186POPI  C31122394   2.657   1.824   3.635
  186POPI  H11X22395   2.692   1.720   3.655
  186POPI  H11Y22396   2.557   1.817   3.587
  186POPI  C31222397   2.639   1.898   3.769
  186POPI  H12X22398   2.632   2.007   3.751
  186POPI  H12Y22399   2.728   1.880   3.834
  186POPI  C31322400   2.510   1.852   3.841
  186POPI  H13X22401   2.462   1.773   3.778
  186POPI  H13Y22402   2.439   1.937   3.848
  186POPI  C31422403   2.534   1.791   3.979
  186POPI  H14X22404   2.564   1.870   4.052
  186POPI  H14Y22405   2.618   1.718   3.973
  186POPI  C31522406   2.410   1.716   4.031
  186POPI  H15X22407   2.379   1.643   3.952
  186POPI  H15Y22408   2.325   1.787   4.045
  186POPI  C31622409   2.436   1.641   4.161
  186POPI  H16X22410   2.393   1.691   4.249
  186POPI  H16Y22411   2.394   1.539   4.158
  186POPI  H16Z22412   2.545   1.630   4.177
  187POPI   C1222413   2.107   6.059   1.975
  187POPI    H222414   2.042   6.072   2.065
  187POPI    O222415   2.070   5.937   1.912
  187POPI   HO222416   2.077   5.870   1.981
  187POPI   C1322417   2.080   6.178   1.884
  187POPI    H322418   2.105   6.270   1.941
  187POPI    O322419   1.942   6.188   1.844
  187POPI   HO322420   1.888   6.210   1.921
  187POPI   C1422421   2.170   6.170   1.762
  187POPI    H422422   2.148   6.075   1.708
  187POPI    O422423   2.144   6.276   1.670
  187POPI   HO422424   2.070   6.249   1.615
  187POPI   C1522425   2.316   6.165   1.803
  187POPI    H522426   2.338   6.258   1.861
  187POPI    O522427   2.402   6.168   1.689
  187POPI   HO522428   2.384   6.092   1.633
  187POPI   C1622429   2.343   6.046   1.896
  187POPI    H622430   2.322   5.952   1.840
  187POPI    O622431   2.477   6.039   1.943
  187POPI   HO622432   2.464   6.009   2.035
  187POPI   C1122433   2.254   6.054   2.018
  187POPI    H122434   2.279   6.149   2.071
  187POPI     P22435   2.251   5.957   2.267
  187POPI   O1322436   2.114   6.008   2.281
  187POPI   O1422437   2.360   6.042   2.319
  187POPI   O1222438   2.273   5.938   2.104
  187POPI   O1122439   2.263   5.810   2.327
  187POPI    C122440   2.140   5.748   2.370
  187POPI    HA22441   2.122   5.662   2.303
  187POPI    HB22442   2.047   5.811   2.367
  187POPI    C222443   2.153   5.699   2.516
  187POPI    HS22444   2.068   5.629   2.531
  187POPI   O2122445   2.153   5.809   2.610
  187POPI   C2122446   2.069   5.797   2.712
  187POPI   O2222447   1.985   5.709   2.723
  187POPI   C2222448   2.103   5.902   2.818
  187POPI   H2R22449   2.064   5.999   2.782
  187POPI   H2S22450   2.214   5.908   2.825
  187POPI    C322451   2.285   5.621   2.531
  187POPI    HX22452   2.315   5.584   2.431
  187POPI    HY22453   2.365   5.691   2.564
  187POPI   O3122454   2.263   5.508   2.618
  187POPI   C3122455   2.278   5.537   2.749
  187POPI   O3222456   2.322   5.639   2.794
  187POPI   C3222457   2.212   5.427   2.831
  187POPI   H2X22458   2.287   5.349   2.855
  187POPI   H2Y22459   2.132   5.381   2.770
  187POPI   C2322460   2.043   5.871   2.957
  187POPI   H3R22461   2.085   5.777   2.997
  187POPI   H3S22462   1.933   5.860   2.948
  187POPI   C2422463   2.074   5.980   3.059
  187POPI   H4R22464   2.040   6.078   3.019
  187POPI   H4S22465   2.184   5.990   3.072
  187POPI   C2522466   2.014   5.951   3.198
  187POPI   H5R22467   1.991   6.045   3.250
  187POPI   H5S22468   2.094   5.905   3.258
  187POPI   C2622469   1.895   5.853   3.210
  187POPI   H6R22470   1.918   5.753   3.169
  187POPI   H6S22471   1.805   5.887   3.156
  187POPI   C2722472   1.865   5.836   3.360
  187POPI   H7R22473   1.963   5.835   3.413
  187POPI   H7S22474   1.816   5.739   3.380
  187POPI   C2822475   1.780   5.953   3.411
  187POPI   H8R22476   1.695   5.968   3.342
  187POPI   H8S22477   1.842   6.045   3.407
  187POPI   C2922478   1.725   5.927   3.548
  187POPI   H9122479   1.646   5.851   3.553
  187POPI  C21022480   1.763   5.992   3.659
  187POPI  H10122481   1.717   5.965   3.755
  187POPI  C21122482   1.866   6.102   3.667
  187POPI  H11R22483   1.858   6.151   3.766
  187POPI  H11S22484   1.847   6.180   3.589
  187POPI  C21222485   2.009   6.047   3.653
  187POPI  H12R22486   2.082   6.131   3.669
  187POPI  H12S22487   2.027   6.011   3.550
  187POPI  C21322488   2.038   5.936   3.755
  187POPI  H13R22489   1.947   5.914   3.815
  187POPI  H13S22490   2.114   5.973   3.826
  187POPI  C21422491   2.086   5.804   3.692
  187POPI  H14R22492   2.196   5.800   3.704
  187POPI  H14S22493   2.065   5.801   3.583
  187POPI  C21522494   2.021   5.679   3.755
  187POPI  H15R22495   1.918   5.665   3.716
  187POPI  H15S22496   2.011   5.695   3.864
  187POPI  C21622497   2.106   5.553   3.727
  187POPI  H16R22498   2.212   5.585   3.721
  187POPI  H16S22499   2.077   5.512   3.627
  187POPI  C21722500   2.099   5.443   3.833
  187POPI  H17R22501   2.165   5.360   3.800
  187POPI  H17S22502   1.995   5.403   3.839
  187POPI  C21822503   2.145   5.487   3.973
  187POPI  H18R22504   2.151   5.401   4.042
  187POPI  H18S22505   2.244   5.537   3.968
  187POPI  H18T22506   2.073   5.559   4.017
  187POPI   C3322507   2.148   5.484   2.961
  187POPI   H3X22508   2.053   5.432   2.982
  187POPI   H3Y22509   2.121   5.590   2.947
  187POPI   C3422510   2.243   5.468   3.080
  187POPI   H4X22511   2.330   5.533   3.059
  187POPI   H4Y22512   2.275   5.362   3.083
  187POPI   C3522513   2.188   5.503   3.219
  187POPI   H5X22514   2.249   5.451   3.297
  187POPI   H5Y22515   2.085   5.461   3.228
  187POPI   C3622516   2.181   5.653   3.252
  187POPI   H6X22517   2.149   5.664   3.358
  187POPI   H6Y22518   2.099   5.689   3.188
  187POPI   C3722519   2.299   5.751   3.227
  187POPI   H7X22520   2.268   5.820   3.146
  187POPI   H7Y22521   2.389   5.702   3.185
  187POPI   C3822522   2.332   5.833   3.354
  187POPI   H8X22523   2.376   5.762   3.427
  187POPI   H8Y22524   2.240   5.872   3.402
  187POPI   C3922525   2.432   5.949   3.336
  187POPI   H9X22526   2.383   6.048   3.336
  187POPI   H9Y22527   2.473   5.932   3.234
  187POPI  C31022528   2.549   5.940   3.437
  187POPI  H10X22529   2.641   5.978   3.386
  187POPI  H10Y22530   2.567   5.833   3.451
  187POPI  C31122531   2.546   6.012   3.575
  187POPI  H11X22532   2.535   6.121   3.560
  187POPI  H11Y22533   2.648   5.994   3.618
  187POPI  C31222534   2.444   5.964   3.680
  187POPI  H12X22535   2.420   5.858   3.658
  187POPI  H12Y22536   2.349   6.018   3.661
  187POPI  C31322537   2.473   5.975   3.834
  187POPI  H13X22538   2.446   5.878   3.881
  187POPI  H13Y22539   2.398   6.048   3.870
  187POPI  C31422540   2.608   6.020   3.900
  187POPI  H14X22541   2.594   6.128   3.921
  187POPI  H14Y22542   2.694   6.013   3.831
  187POPI  C31522543   2.644   5.948   4.034
  187POPI  H15X22544   2.687   5.849   4.012
  187POPI  H15Y22545   2.551   5.929   4.090
  187POPI  C31622546   2.744   6.012   4.134
  187POPI  H16X22547   2.845   6.022   4.089
  187POPI  H16Y22548   2.711   6.111   4.170
  187POPI  H16Z22549   2.755   5.946   4.223
  188POPI   C1222550   5.384   1.668   2.050
  188POPI    H222551   5.449   1.643   2.138
  188POPI    O222552   5.334   1.799   2.069
  188POPI   HO222553   5.306   1.807   2.161
  188POPI   C1322554   5.469   1.657   1.924
  188POPI    H322555   5.504   1.552   1.917
  188POPI    O322556   5.588   1.736   1.935
  188POPI   HO322557   5.574   1.808   2.000
  188POPI   C1422558   5.384   1.685   1.798
  188POPI    H422559   5.342   1.789   1.805
  188POPI    O422560   5.465   1.680   1.679
  188POPI   HO422561   5.541   1.737   1.694
  188POPI   C1522562   5.266   1.587   1.794
  188POPI    H522563   5.311   1.485   1.793
  188POPI    O522564   5.185   1.593   1.675
  188POPI   HO522565   5.121   1.665   1.682
  188POPI   C1622566   5.182   1.601   1.923
  188POPI    H622567   5.150   1.706   1.932
  188POPI    O622568   5.062   1.524   1.920
  188POPI   HO622569   5.091   1.432   1.917
  188POPI   C1122570   5.272   1.567   2.042
  188POPI    H122571   5.314   1.466   2.021
  188POPI     P22572   5.236   1.458   2.284
  188POPI   O1322573   5.365   1.496   2.345
  188POPI   O1422574   5.220   1.322   2.227
  188POPI   O1222575   5.198   1.565   2.163
  188POPI   O1122576   5.114   1.488   2.382
  188POPI    C122577   4.985   1.511   2.317
  188POPI    HA22578   4.970   1.448   2.227
  188POPI    HB22579   4.980   1.618   2.283
  188POPI    C222580   4.861   1.492   2.409
  188POPI    HS22581   4.773   1.531   2.352
  188POPI   O2122582   4.886   1.574   2.523
  188POPI   C2122583   4.791   1.572   2.611
  188POPI   O2222584   4.674   1.552   2.592
  188POPI   C2222585   4.856   1.589   2.744
  188POPI   H2R22586   4.942   1.658   2.733
  188POPI   H2S22587   4.896   1.492   2.780
  188POPI    C322588   4.825   1.344   2.453
  188POPI    HX22589   4.717   1.339   2.479
  188POPI    HY22590   4.839   1.280   2.364
  188POPI   O3122591   4.907   1.291   2.559
  188POPI   C3122592   4.857   1.266   2.680
  188POPI   O3222593   4.744   1.284   2.719
  188POPI   C3222594   4.979   1.226   2.761
  188POPI   H2X22595   5.055   1.306   2.746
  188POPI   H2Y22596   5.016   1.133   2.715
  188POPI   C2322597   4.752   1.641   2.839
  188POPI   H3R22598   4.670   1.567   2.857
  188POPI   H3S22599   4.707   1.731   2.792
  188POPI   C2422600   4.823   1.681   2.966
  188POPI   H4R22601   4.768   1.764   3.014
  188POPI   H4S22602   4.921   1.722   2.934
  188POPI   C2522603   4.855   1.568   3.061
  188POPI   H5R22604   4.904   1.614   3.150
  188POPI   H5S22605   4.931   1.500   3.016
  188POPI   C2622606   4.736   1.483   3.105
  188POPI   H6R22607   4.715   1.406   3.027
  188POPI   H6S22608   4.643   1.543   3.118
  188POPI   C2722609   4.771   1.418   3.239
  188POPI   H7R22610   4.871   1.371   3.228
  188POPI   H7S22611   4.698   1.337   3.260
  188POPI   C2822612   4.772   1.519   3.356
  188POPI   H8R22613   4.665   1.518   3.384
  188POPI   H8S22614   4.796   1.623   3.323
  188POPI   C2922615   4.856   1.477   3.474
  188POPI   H9122616   4.825   1.376   3.506
  188POPI  C21022617   4.964   1.532   3.539
  188POPI  H10122618   5.005   1.464   3.612
  188POPI  C21122619   5.051   1.660   3.529
  188POPI  H11R22620   5.010   1.720   3.445
  188POPI  H11S22621   5.143   1.614   3.485
  188POPI  C21222622   5.127   1.767   3.632
  188POPI  H12R22623   5.108   1.851   3.568
  188POPI  H12S22624   5.234   1.754   3.607
  188POPI  C21322625   5.120   1.847   3.781
  188POPI  H13R22626   5.051   1.928   3.759
  188POPI  H13S22627   5.217   1.898   3.783
  188POPI  C21422628   5.069   1.838   3.942
  188POPI  H14R22629   4.965   1.873   3.944
  188POPI  H14S22630   5.122   1.929   3.979
  188POPI  C21522631   5.074   1.742   4.077
  188POPI  H15R22632   4.967   1.729   4.105
  188POPI  H15S22633   5.112   1.807   4.158
  188POPI  C21622634   5.131   1.593   4.092
  188POPI  H16R22635   5.229   1.599   4.048
  188POPI  H16S22636   5.066   1.521   4.041
  188POPI  C21722637   5.167   1.496   4.208
  188POPI  H17R22638   5.110   1.399   4.194
  188POPI  H17S22639   5.137   1.535   4.307
  188POPI  C21822640   5.316   1.454   4.191
  188POPI  H18R22641   5.339   1.355   4.235
  188POPI  H18S22642   5.346   1.447   4.084
  188POPI  H18T22643   5.385   1.528   4.237
  188POPI   C3322644   4.965   1.203   2.913
  188POPI   H3X22645   4.896   1.120   2.936
  188POPI   H3Y22646   4.928   1.294   2.965
  188POPI   C3422647   5.107   1.169   2.957
  188POPI   H4X22648   5.168   1.262   2.957
  188POPI   H4Y22649   5.151   1.104   2.879
  188POPI   C3522650   5.123   1.088   3.085
  188POPI   H5X22651   5.229   1.054   3.090
  188POPI   H5Y22652   5.059   0.997   3.081
  188POPI   C3622653   5.094   1.172   3.208
  188POPI   H6X22654   5.124   1.112   3.297
  188POPI   H6Y22655   4.985   1.191   3.217
  188POPI   C3722656   5.171   1.305   3.202
  188POPI   H7X22657   5.115   1.376   3.136
  188POPI   H7Y22658   5.272   1.289   3.159
  188POPI   C3822659   5.186   1.367   3.339
  188POPI   H8X22660   5.085   1.362   3.384
  188POPI   H8Y22661   5.214   1.475   3.332
  188POPI   C3922662   5.290   1.293   3.421
  188POPI   H9X22663   5.390   1.332   3.392
  188POPI   H9Y22664   5.290   1.184   3.399
  188POPI  C31022665   5.272   1.310   3.570
  188POPI  H10X22666   5.281   1.419   3.592
  188POPI  H10Y22667   5.360   1.262   3.617
  188POPI  C31122668   5.137   1.257   3.625
  188POPI  H11X22669   5.054   1.275   3.556
  188POPI  H11Y22670   5.114   1.315   3.717
  188POPI  C31222671   5.130   1.109   3.662
  188POPI  H12X22672   5.122   1.047   3.570
  188POPI  H12Y22673   5.037   1.092   3.721
  188POPI  C31322674   5.250   1.063   3.744
  188POPI  H13X22675   5.334   1.048   3.673
  188POPI  H13Y22676   5.229   0.963   3.787
  188POPI  C31422677   5.296   1.164   3.852
  188POPI  H14X22678   5.342   1.256   3.811
  188POPI  H14Y22679   5.377   1.117   3.910
  188POPI  C31522680   5.195   1.208   3.956
  188POPI  H15X22681   5.130   1.289   3.919
  188POPI  H15Y22682   5.251   1.249   4.043
  188POPI  C31622683   5.107   1.095   4.000
  188POPI  H16X22684   5.007   1.108   3.954
  188POPI  H16Y22685   5.143   0.995   3.970
  188POPI  H16Z22686   5.098   1.094   4.111
  189POPI   C1222687   1.100   0.894   1.941
  189POPI    H222688   1.190   0.862   1.998
  189POPI    O222689   1.080   1.034   1.963
  189POPI   HO222690   1.105   1.051   2.055
  189POPI   C1322691   1.133   0.863   1.795
  189POPI    H322692   1.156   0.754   1.787
  189POPI    O322693   1.248   0.934   1.751
  189POPI   HO322694   1.217   1.023   1.729
  189POPI   C1422695   1.013   0.892   1.706
  189POPI    H422696   0.991   1.002   1.712
  189POPI    O422697   1.044   0.856   1.571
  189POPI   HO422698   0.988   0.908   1.511
  189POPI   C1522699   0.893   0.814   1.750
  189POPI    H522700   0.915   0.705   1.740
  189POPI    O522701   0.781   0.847   1.666
  189POPI   HO522702   0.720   0.773   1.672
  189POPI   C1622703   0.860   0.842   1.896
  189POPI    H622704   0.830   0.949   1.907
  189POPI    O622705   0.752   0.757   1.933
  189POPI   HO622706   0.692   0.811   1.989
  189POPI   C1122707   0.978   0.812   1.986
  189POPI    H122708   1.002   0.704   1.971
  189POPI     P22709   1.045   0.775   2.242
  189POPI   O1322710   1.172   0.851   2.235
  189POPI   O1422711   1.052   0.626   2.224
  189POPI   O1222712   0.943   0.837   2.125
  189POPI   O1122713   0.966   0.809   2.378
  189POPI    C122714   0.825   0.786   2.391
  189POPI    HA22715   0.788   0.703   2.326
  189POPI    HB22716   0.774   0.879   2.359
  189POPI    C222717   0.769   0.758   2.537
  189POPI    HS22718   0.664   0.796   2.540
  189POPI   O2122719   0.849   0.828   2.633
  189POPI   C2122720   0.806   0.830   2.758
  189POPI   O2222721   0.699   0.786   2.798
  189POPI   C2222722   0.912   0.905   2.839
  189POPI   H2R22723   0.898   1.013   2.828
  189POPI   H2S22724   1.010   0.883   2.791
  189POPI    C322725   0.763   0.605   2.572
  189POPI    HX22726   0.700   0.593   2.663
  189POPI    HY22727   0.706   0.554   2.490
  189POPI   O3122728   0.894   0.547   2.586
  189POPI   C3122729   0.903   0.444   2.669
  189POPI   O3222730   0.809   0.384   2.717
  189POPI   C3222731   1.049   0.400   2.681
  189POPI   H2X22732   1.104   0.440   2.592
  189POPI   H2Y22733   1.051   0.289   2.679
  189POPI   C2322734   0.923   0.862   2.987
  189POPI   H3R22735   1.008   0.917   3.035
  189POPI   H3S22736   0.948   0.755   2.984
  189POPI   C2422737   0.801   0.867   3.078
  189POPI   H4R22738   0.712   0.824   3.028
  189POPI   H4S22739   0.775   0.971   3.107
  189POPI   C2522740   0.831   0.778   3.200
  189POPI   H5R22741   0.874   0.682   3.167
  189POPI   H5S22742   0.740   0.748   3.251
  189POPI   C2622743   0.920   0.843   3.304
  189POPI   H6R22744   1.021   0.862   3.263
  189POPI   H6S22745   0.930   0.771   3.389
  189POPI   C2722746   0.871   0.976   3.359
  189POPI   H7R22747   0.766   0.967   3.394
  189POPI   H7S22748   0.877   1.055   3.282
  189POPI   C2822749   0.959   1.009   3.479
  189POPI   H8R22750   1.065   1.021   3.446
  189POPI   H8S22751   0.955   0.921   3.548
  189POPI   C2922752   0.909   1.133   3.545
  189POPI   H9122753   0.843   1.199   3.486
  189POPI  C21022754   0.941   1.163   3.670
  189POPI  H10122755   0.903   1.256   3.715
  189POPI  C21122756   1.029   1.078   3.758
  189POPI  H11R22757   1.134   1.115   3.756
  189POPI  H11S22758   1.033   0.971   3.732
  189POPI  C21222759   0.974   1.096   3.899
  189POPI  H12R22760   0.959   1.204   3.914
  189POPI  H12S22761   1.046   1.055   3.974
  189POPI  C21322762   0.838   1.036   3.925
  189POPI  H13R22763   0.761   1.078   3.857
  189POPI  H13S22764   0.808   1.062   4.030
  189POPI  C21422765   0.842   0.887   3.911
  189POPI  H14R22766   0.922   0.844   3.976
  189POPI  H14S22767   0.862   0.856   3.806
  189POPI  C21522768   0.707   0.838   3.955
  189POPI  H15R22769   0.628   0.885   3.893
  189POPI  H15S22770   0.690   0.873   4.060
  189POPI  C21622771   0.706   0.687   3.950
  189POPI  H16R22772   0.812   0.653   3.953
  189POPI  H16S22773   0.662   0.647   3.857
  189POPI  C21722774   0.641   0.629   4.073
  189POPI  H17R22775   0.629   0.521   4.052
  189POPI  H17S22776   0.538   0.672   4.084
  189POPI  C21822777   0.724   0.653   4.200
  189POPI  H18R22778   0.779   0.560   4.229
  189POPI  H18S22779   0.800   0.733   4.185
  189POPI  H18T22780   0.658   0.683   4.284
  189POPI   C3322781   1.116   0.452   2.810
  189POPI   H3X22782   1.223   0.422   2.810
  189POPI   H3Y22783   1.067   0.406   2.899
  189POPI   C3422784   1.105   0.604   2.820
  189POPI   H4X22785   0.997   0.628   2.836
  189POPI   H4Y22786   1.132   0.649   2.722
  189POPI   C3522787   1.189   0.671   2.929
  189POPI   H5X22788   1.169   0.781   2.923
  189POPI   H5Y22789   1.297   0.658   2.906
  189POPI   C3622790   1.160   0.627   3.073
  189POPI   H6X22791   1.198   0.524   3.087
  189POPI   H6Y22792   1.052   0.623   3.092
  189POPI   C3722793   1.227   0.719   3.176
  189POPI   H7X22794   1.190   0.823   3.163
  189POPI   H7Y22795   1.334   0.723   3.151
  189POPI   C3822796   1.207   0.673   3.322
  189POPI   H8X22797   1.248   0.571   3.333
  189POPI   H8Y22798   1.099   0.664   3.345
  189POPI   C3922799   1.273   0.768   3.424
  189POPI   H9X22800   1.245   0.873   3.397
  189POPI   H9Y22801   1.383   0.760   3.410
  189POPI  C31022802   1.245   0.752   3.575
  189POPI  H10X22803   1.163   0.822   3.604
  189POPI  H10Y22804   1.336   0.786   3.629
  189POPI  C31122805   1.209   0.612   3.628
  189POPI  H11X22806   1.279   0.586   3.711
  189POPI  H11Y22807   1.222   0.535   3.550
  189POPI  C31222808   1.066   0.608   3.686
  189POPI  H12X22809   0.995   0.662   3.620
  189POPI  H12Y22810   1.069   0.663   3.783
  189POPI  C31322811   1.014   0.465   3.711
  189POPI  H13X22812   1.104   0.403   3.731
  189POPI  H13Y22813   0.965   0.426   3.620
  189POPI  C31422814   0.918   0.457   3.831
  189POPI  H14X22815   0.823   0.506   3.801
  189POPI  H14Y22816   0.963   0.516   3.915
  189POPI  C31522817   0.888   0.317   3.886
  189POPI  H15X22818   0.983   0.270   3.917
  189POPI  H15Y22819   0.843   0.254   3.806
  189POPI  C31622820   0.802   0.310   4.012
  189POPI  H16X22821   0.836   0.387   4.085
  189POPI  H16Y22822   0.695   0.326   3.990
  189POPI  H16Z22823   0.813   0.211   4.061
  190POPI   C1222824   7.520   7.594   1.937
  190POPI    H222825   7.616   7.622   1.986
  190POPI    O222826   7.422   7.695   1.965
  190POPI   HO222827   7.463   7.759   2.025
  190POPI   C1322828   7.547   7.584   1.789
  190POPI    H322829   7.616   7.498   1.772
  190POPI    O322830   7.614   7.700   1.737
  190POPI   HO322831   7.700   7.672   1.700
  190POPI   C1422832   7.417   7.555   1.717
  190POPI    H422833   7.342   7.634   1.742
  190POPI    O422834   7.437   7.565   1.577
  190POPI   HO422835   7.433   7.661   1.560
  190POPI   C1522836   7.364   7.422   1.765
  190POPI    H522837   7.445   7.348   1.745
  190POPI    O522838   7.246   7.379   1.694
  190POPI   HO522839   7.194   7.449   1.655
  190POPI   C1622840   7.341   7.424   1.917
  190POPI    H622841   7.263   7.499   1.942
  190POPI    O622842   7.298   7.298   1.967
  190POPI   HO622843   7.334   7.294   2.057
  190POPI   C1122844   7.470   7.460   1.989
  190POPI    H122845   7.545   7.380   1.969
  190POPI     P22846   7.575   7.457   2.236
  190POPI   O1322847   7.682   7.553   2.199
  190POPI   O1422848   7.610   7.315   2.241
  190POPI   O1222849   7.449   7.479   2.130
  190POPI   O1122850   7.501   7.506   2.367
  190POPI    C122851   7.440   7.638   2.378
  190POPI    HA22852   7.330   7.625   2.369
  190POPI    HB22853   7.473   7.707   2.297
  190POPI    C222854   7.467   7.709   2.516
  190POPI    HS22855   7.565   7.760   2.512
  190POPI   O2122856   7.464   7.608   2.613
  190POPI   C2122857   7.576   7.543   2.625
  190POPI   O2222858   7.684   7.574   2.579
  190POPI   C2222859   7.547   7.427   2.714
  190POPI   H2R22860   7.540   7.335   2.650
  190POPI   H2S22861   7.448   7.438   2.760
  190POPI    C322862   7.363   7.814   2.565
  190POPI    HX22863   7.386   7.914   2.522
  190POPI    HY22864   7.265   7.782   2.521
  190POPI   O3122865   7.347   7.816   2.711
  190POPI   C3122866   7.439   7.888   2.776
  190POPI   O3222867   7.522   7.958   2.721
  190POPI   C3222868   7.430   7.867   2.930
  190POPI   H2X22869   7.533   7.868   2.966
  190POPI   H2Y22870   7.401   7.764   2.947
  190POPI   C2322871   7.659   7.408   2.817
  190POPI   H3R22872   7.732   7.359   2.753
  190POPI   H3S22873   7.624   7.339   2.896
  190POPI   C2422874   7.747   7.522   2.875
  190POPI   H4R22875   7.757   7.610   2.809
  190POPI   H4S22876   7.850   7.478   2.885
  190POPI   C2522877   7.701   7.556   3.015
  190POPI   H5R22878   7.683   7.457   3.062
  190POPI   H5S22879   7.607   7.614   3.007
  190POPI   C2622880   7.799   7.629   3.109
  190POPI   H6R22881   7.835   7.721   3.061
  190POPI   H6S22882   7.887   7.566   3.128
  190POPI   C2722883   7.728   7.667   3.241
  190POPI   H7R22884   7.708   7.573   3.297
  190POPI   H7S22885   7.630   7.713   3.212
  190POPI   C2822886   7.799   7.766   3.334
  190POPI   H8R22887   7.720   7.830   3.380
  190POPI   H8S22888   7.865   7.832   3.273
  190POPI   C2922889   7.878   7.697   3.442
  190POPI   H9122890   7.986   7.692   3.421
  190POPI  C21022891   7.833   7.645   3.557
  190POPI  H10122892   7.907   7.600   3.624
  190POPI  C21122893   7.695   7.637   3.619
  190POPI  H11R22894   7.644   7.542   3.591
  190POPI  H11S22895   7.630   7.722   3.590
  190POPI  C21222896   7.722   7.636   3.772
  190POPI  H12R22897   7.779   7.727   3.795
  190POPI  H12S22898   7.787   7.548   3.795
  190POPI  C21322899   7.601   7.627   3.868
  190POPI  H13R22900   7.532   7.550   3.826
  190POPI  H13S22901   7.546   7.723   3.873
  190POPI  C21422902   7.640   7.579   4.011
  190POPI  H14R22903   7.748   7.550   4.011
  190POPI  H14S22904   7.581   7.488   4.034
  190POPI  C21522905   7.622   7.675   4.131
  190POPI  H15R22906   7.529   7.735   4.127
  190POPI  H15S22907   7.702   7.749   4.112
  190POPI  C21622908   7.646   7.611   4.272
  190POPI  H16R22909   7.690   7.691   4.335
  190POPI  H16S22910   7.719   7.529   4.263
  190POPI  C21722911   7.535   7.572   4.371
  190POPI  H17R22912   7.582   7.510   4.451
  190POPI  H17S22913   7.458   7.507   4.326
  190POPI  C21822914   7.474   7.694   4.439
  190POPI  H18R22915   7.547   7.743   4.507
  190POPI  H18S22916   7.441   7.768   4.364
  190POPI  H18T22917   7.386   7.664   4.501
  190POPI   C3322918   7.348   7.969   3.018
  190POPI   H3X22919   7.310   8.053   2.957
  190POPI   H3Y22920   7.421   8.015   3.088
  190POPI   C3422921   7.230   7.912   3.103
  190POPI   H4X22922   7.152   7.989   3.114
  190POPI   H4Y22923   7.270   7.887   3.204
  190POPI   C3522924   7.175   7.783   3.041
  190POPI   H5X22925   7.248   7.709   3.071
  190POPI   H5Y22926   7.179   7.796   2.931
  190POPI   C3622927   7.039   7.721   3.072
  190POPI   H6X22928   6.998   7.678   2.978
  190POPI   H6Y22929   6.971   7.804   3.102
  190POPI   C3722930   7.025   7.611   3.183
  190POPI   H7X22931   6.918   7.597   3.159
  190POPI   H7Y22932   7.032   7.661   3.280
  190POPI   C3822933   7.050   7.456   3.186
  190POPI   H8X22934   7.122   7.417   3.114
  190POPI   H8Y22935   6.956   7.404   3.158
  190POPI   C3922936   7.088   7.391   3.321
  190POPI   H9X22937   7.194   7.360   3.315
  190POPI   H9Y22938   7.028   7.298   3.328
  190POPI  C31022939   7.065   7.469   3.451
  190POPI  H10X22940   7.075   7.401   3.538
  190POPI  H10Y22941   6.960   7.501   3.447
  190POPI  C31122942   7.160   7.589   3.470
  190POPI  H11X22943   7.098   7.682   3.469
  190POPI  H11Y22944   7.227   7.596   3.382
  190POPI  C31222945   7.246   7.590   3.596
  190POPI  H12X22946   7.341   7.643   3.574
  190POPI  H12Y22947   7.274   7.491   3.635
  190POPI  C31322948   7.173   7.664   3.705
  190POPI  H13X22949   7.131   7.754   3.657
  190POPI  H13Y22950   7.247   7.692   3.783
  190POPI  C31422951   7.055   7.591   3.767
  190POPI  H14X22952   7.058   7.483   3.743
  190POPI  H14Y22953   6.960   7.632   3.730
  190POPI  C31522954   7.069   7.607   3.916
  190POPI  H15X22955   7.087   7.713   3.946
  190POPI  H15Y22956   7.163   7.550   3.927
  190POPI  C31622957   6.963   7.541   4.000
  190POPI  H16X22958   6.902   7.617   4.054
  190POPI  H16Y22959   6.899   7.483   3.931
  190POPI  H16Z22960   7.006   7.473   4.077
  191PSM      N22961   4.359   5.121   6.464
  191PSM    C1522962   4.268   5.008   6.431
  191PSM   H15A22963   4.311   4.915   6.469
  191PSM   H15B22964   4.172   5.023   6.477
  191PSM   H15C22965   4.258   4.997   6.324
  191PSM    C1422966   4.307   5.250   6.410
  191PSM   H14A22967   4.377   5.328   6.441
  191PSM   H14B22968   4.313   5.253   6.301
  191PSM   H14C22969   4.208   5.275   6.444
  191PSM    C1322970   4.371   5.132   6.614
  191PSM   H13A22971   4.426   5.222   6.641
  191PSM   H13B22972   4.275   5.138   6.663
  191PSM   H13C22973   4.428   5.049   6.654
  191PSM    C1222974   4.496   5.098   6.400
  191PSM   H12A22975   4.529   4.998   6.424
  191PSM   H12B22976   4.486   5.106   6.292
  191PSM    C1122977   4.611   5.193   6.442
  191PSM   H11A22978   4.624   5.191   6.552
  191PSM   H11B22979   4.706   5.155   6.399
  191PSM      P22980   4.617   5.370   6.254
  191PSM    O1322981   4.675   5.507   6.257
  191PSM    O1422982   4.685   5.262   6.182
  191PSM    O1122983   4.469   5.372   6.199
  191PSM    O1222984   4.586   5.328   6.404
  191PSM    C1S22985   4.452   5.420   6.066
  191PSM    H1S22986   4.347   5.450   6.051
  191PSM    H1T22987   4.513   5.513   6.050
  191PSM     NF22988   4.469   5.387   5.828
  191PSM    HNF22989   4.399   5.357   5.765
  191PSM    C2S22990   4.486   5.317   5.953
  191PSM    H2S22991   4.593   5.287   5.961
  191PSM    C3S22992   4.400   5.188   5.959
  191PSM    H3S22993   4.292   5.216   5.961
  191PSM     O322994   4.422   5.102   6.071
  191PSM    HO322995   4.502   5.137   6.112
  191PSM    C4S22996   4.430   5.111   5.832
  191PSM    H4S22997   4.531   5.068   5.829
  191PSM    C5S22998   4.347   5.094   5.727
  191PSM    H5S22999   4.245   5.135   5.731
  191PSM    C6S23000   4.381   5.017   5.601
  191PSM    H6S23001   4.485   4.978   5.609
  191PSM    H6T23002   4.316   4.928   5.590
  191PSM    C7S23003   4.376   5.102   5.471
  191PSM    H7S23004   4.425   5.200   5.486
  191PSM    H7T23005   4.437   5.049   5.394
  191PSM    C8S23006   4.234   5.120   5.412
  191PSM    H8S23007   4.179   5.024   5.429
  191PSM    H8T23008   4.180   5.199   5.470
  191PSM    C9S23009   4.222   5.148   5.259
  191PSM    H9S23010   4.252   5.056   5.205
  191PSM    H9T23011   4.114   5.164   5.237
  191PSM   C10S23012   4.300   5.269   5.202
  191PSM   H10S23013   4.250   5.362   5.237
  191PSM   H10T23014   4.403   5.269   5.243
  191PSM   C11S23015   4.311   5.274   5.046
  191PSM   H11S23016   4.338   5.379   5.019
  191PSM   H11T23017   4.397   5.211   5.014
  191PSM   C12S23018   4.187   5.231   4.965
  191PSM   H12S23019   4.178   5.121   4.964
  191PSM   H12T23020   4.097   5.271   5.017
  191PSM   C13S23021   4.182   5.285   4.819
  191PSM   H13S23022   4.076   5.310   4.796
  191PSM   H13T23023   4.244   5.376   4.809
  191PSM   C14S23024   4.228   5.188   4.710
  191PSM   H14S23025   4.337   5.183   4.718
  191PSM   H14T23026   4.187   5.087   4.729
  191PSM   C15S23027   4.193   5.229   4.566
  191PSM   H15S23028   4.228   5.150   4.495
  191PSM   H15T23029   4.081   5.234   4.561
  191PSM   C16S23030   4.247   5.365   4.518
  191PSM   H16S23031   4.203   5.387   4.417
  191PSM   H16T23032   4.206   5.439   4.589
  191PSM   C17S23033   4.400   5.378   4.508
  191PSM   H17S23034   4.446   5.341   4.602
  191PSM   H17T23035   4.430   5.311   4.425
  191PSM   C18S23036   4.458   5.518   4.478
  191PSM   H18S23037   4.424   5.556   4.379
  191PSM   H18T23038   4.431   5.592   4.556
  191PSM   H18U23039   4.569   5.512   4.475
  191PSM    C1F23040   4.546   5.490   5.798
  191PSM     OF23041   4.661   5.494   5.840
  191PSM    C2F23042   4.483   5.596   5.715
  191PSM    H2F23043   4.438   5.673   5.782
  191PSM    H2G23044   4.402   5.550   5.653
  191PSM    C3F23045   4.587   5.659   5.624
  191PSM    H3F23046   4.660   5.717   5.684
  191PSM    H3G23047   4.538   5.729   5.553
  191PSM    C4F23048   4.664   5.553   5.547
  191PSM    H4F23049   4.593   5.484   5.499
  191PSM    H4G23050   4.728   5.490   5.614
  191PSM    C5F23051   4.758   5.621   5.451
  191PSM    H5F23052   4.851   5.562   5.450
  191PSM    H5G23053   4.784   5.723   5.486
  191PSM    C6F23054   4.703   5.620   5.311
  191PSM    H6F23055   4.773   5.676   5.246
  191PSM    H6G23056   4.603   5.670   5.308
  191PSM    C7F23057   4.685   5.480   5.258
  191PSM    H7F23058   4.636   5.502   5.162
  191PSM    H7G23059   4.614   5.416   5.314
  191PSM    C8F23060   4.820   5.406   5.251
  191PSM    H8F23061   4.853   5.370   5.351
  191PSM    H8G23062   4.897   5.478   5.214
  191PSM    C9F23063   4.816   5.293   5.152
  191PSM    H9F23064   4.755   5.207   5.188
  191PSM    H9G23065   4.920   5.257   5.136
  191PSM   C10F23066   4.755   5.352   5.026
  191PSM   H10F23067   4.798   5.454   5.011
  191PSM   H10G23068   4.643   5.357   5.035
  191PSM   C11F23069   4.780   5.277   4.902
  191PSM   H11F23070   4.721   5.320   4.818
  191PSM   H11G23071   4.746   5.172   4.919
  191PSM   C12F23072   4.925   5.278   4.864
  191PSM   H12F23073   4.986   5.229   4.943
  191PSM   H12G23074   4.966   5.379   4.847
  191PSM   C13F23075   4.922   5.193   4.740
  191PSM   H13F23076   4.826   5.142   4.735
  191PSM   H13G23077   4.975   5.101   4.751
  191PSM   C14F23078   4.970   5.250   4.610
  191PSM   H14F23079   5.057   5.190   4.575
  191PSM   H14G23080   5.002   5.355   4.619
  191PSM   C15F23081   4.854   5.228   4.517
  191PSM   H15F23082   4.765   5.190   4.572
  191PSM   H15G23083   4.881   5.146   4.450
  191PSM   C16F23084   4.799   5.353   4.456
  191PSM   H16F23085   4.714   5.338   4.387
  191PSM   H16G23086   4.757   5.401   4.546
  191PSM   H16H23087   4.877   5.415   4.407
  192PSM      N23088   2.209   5.199   6.403
  192PSM    C1523089   2.176   5.335   6.352
  192PSM   H15A23090   2.250   5.370   6.278
  192PSM   H15B23091   2.080   5.344   6.304
  192PSM   H15C23092   2.178   5.410   6.432
  192PSM    C1423093   2.348   5.210   6.457
  192PSM   H14A23094   2.358   5.283   6.535
  192PSM   H14B23095   2.387   5.114   6.489
  192PSM   H14C23096   2.420   5.239   6.379
  192PSM    C1323097   2.111   5.165   6.511
  192PSM   H13A23098   2.111   5.244   6.585
  192PSM   H13B23099   2.011   5.158   6.471
  192PSM   H13C23100   2.139   5.070   6.556
  192PSM    C1223101   2.210   5.093   6.294
  192PSM   H12A23102   2.124   5.105   6.229
  192PSM   H12B23103   2.299   5.108   6.233
  192PSM    C1123104   2.211   4.945   6.340
  192PSM   H11A23105   2.125   4.927   6.409
  192PSM   H11B23106   2.194   4.878   6.253
  192PSM      P23107   2.468   4.903   6.325
  192PSM    O1323108   2.531   5.036   6.335
  192PSM    O1423109   2.548   4.789   6.374
  192PSM    O1123110   2.418   4.881   6.176
  192PSM    O1223111   2.331   4.912   6.408
  192PSM    C1S23112   2.483   4.961   6.077
  192PSM    H1S23113   2.494   5.068   6.107
  192PSM    H1T23114   2.586   4.921   6.058
  192PSM     NF23115   2.311   5.069   5.930
  192PSM    HNF23116   2.215   5.047   5.922
  192PSM    C2S23117   2.408   4.960   5.941
  192PSM    H2S23118   2.486   4.976   5.862
  192PSM    C3S23119   2.337   4.826   5.915
  192PSM    H3S23120   2.258   4.806   5.989
  192PSM     O323121   2.423   4.713   5.913
  192PSM    HO323122   2.437   4.688   6.005
  192PSM    C4S23123   2.276   4.842   5.779
  192PSM    H4S23124   2.353   4.855   5.701
  192PSM    C5S23125   2.147   4.844   5.740
  192PSM    H5S23126   2.065   4.829   5.813
  192PSM    C6S23127   2.113   4.864   5.595
  192PSM    H6S23128   2.198   4.909   5.541
  192PSM    H6T23129   2.100   4.765   5.547
  192PSM    C7S23130   1.989   4.952   5.565
  192PSM    H7S23131   1.904   4.920   5.630
  192PSM    H7T23132   2.013   5.058   5.591
  192PSM    C8S23133   1.942   4.945   5.418
  192PSM    H8S23134   1.910   4.840   5.398
  192PSM    H8T23135   1.852   5.009   5.406
  192PSM    C9S23136   2.048   4.986   5.314
  192PSM    H9S23137   2.055   5.097   5.317
  192PSM    H9T23138   2.147   4.943   5.340
  192PSM   C10S23139   2.019   4.949   5.168
  192PSM   H10S23140   2.077   4.857   5.142
  192PSM   H10T23141   1.912   4.923   5.159
  192PSM   C11S23142   2.050   5.062   5.068
  192PSM   H11S23143   1.987   5.046   4.978
  192PSM   H11T23144   2.019   5.159   5.112
  192PSM   C12S23145   2.196   5.071   5.023
  192PSM   H12S23146   2.211   5.166   4.966
  192PSM   H12T23147   2.261   5.075   5.113
  192PSM   C13S23148   2.241   4.954   4.935
  192PSM   H13S23149   2.352   4.958   4.923
  192PSM   H13T23150   2.217   4.860   4.988
  192PSM   C14S23151   2.178   4.950   4.795
  192PSM   H14S23152   2.193   4.849   4.752
  192PSM   H14T23153   2.068   4.967   4.799
  192PSM   C15S23154   2.242   5.053   4.701
  192PSM   H15S23155   2.201   5.153   4.726
  192PSM   H15T23156   2.351   5.057   4.720
  192PSM   C16S23157   2.216   5.026   4.552
  192PSM   H16S23158   2.115   4.981   4.539
  192PSM   H16T23159   2.213   5.124   4.501
  192PSM   C17S23160   2.321   4.939   4.479
  192PSM   H17S23161   2.272   4.842   4.456
  192PSM   H17T23162   2.339   4.989   4.383
  192PSM   C18S23163   2.464   4.919   4.533
  192PSM   H18S23164   2.528   5.005   4.507
  192PSM   H18T23165   2.466   4.904   4.643
  192PSM   H18U23166   2.512   4.831   4.485
  192PSM    C1F23167   2.349   5.195   5.920
  192PSM     OF23168   2.468   5.224   5.921
  192PSM    C2F23169   2.241   5.298   5.907
  192PSM    H2F23170   2.249   5.361   5.997
  192PSM    H2G23171   2.142   5.249   5.907
  192PSM    C3F23172   2.255   5.389   5.783
  192PSM    H3F23173   2.358   5.429   5.776
  192PSM    H3G23174   2.187   5.477   5.800
  192PSM    C4F23175   2.213   5.325   5.650
  192PSM    H4F23176   2.216   5.405   5.573
  192PSM    H4G23177   2.108   5.289   5.657
  192PSM    C5F23178   2.304   5.211   5.604
  192PSM    H5F23179   2.285   5.121   5.667
  192PSM    H5G23180   2.411   5.239   5.615
  192PSM    C6F23181   2.272   5.173   5.460
  192PSM    H6F23182   2.163   5.188   5.450
  192PSM    H6G23183   2.296   5.066   5.442
  192PSM    C7F23184   2.345   5.255   5.354
  192PSM    H7F23185   2.343   5.363   5.381
  192PSM    H7G23186   2.292   5.244   5.257
  192PSM    C8F23187   2.490   5.208   5.337
  192PSM    H8F23188   2.490   5.098   5.319
  192PSM    H8G23189   2.544   5.226   5.433
  192PSM    C9F23190   2.565   5.275   5.222
  192PSM    H9F23191   2.673   5.250   5.232
  192PSM    H9G23192   2.556   5.385   5.231
  192PSM   C10F23193   2.517   5.233   5.083
  192PSM   H10F23194   2.415   5.274   5.066
  192PSM   H10G23195   2.510   5.122   5.076
  192PSM   C11F23196   2.612   5.285   4.975
  192PSM   H11F23197   2.665   5.201   4.925
  192PSM   H11G23198   2.689   5.347   5.027
  192PSM   C12F23199   2.544   5.375   4.871
  192PSM   H12F23200   2.622   5.439   4.824
  192PSM   H12G23201   2.469   5.441   4.919
  192PSM   C13F23202   2.473   5.295   4.762
  192PSM   H13F23203   2.371   5.268   4.797
  192PSM   H13G23204   2.530   5.200   4.749
  192PSM   C14F23205   2.466   5.366   4.627
  192PSM   H14F23206   2.546   5.443   4.618
  192PSM   H14G23207   2.368   5.417   4.614
  192PSM   C15F23208   2.487   5.261   4.518
  192PSM   H15F23209   2.412   5.183   4.537
  192PSM   H15G23210   2.586   5.213   4.534
  192PSM   C16F23211   2.474   5.307   4.374
  192PSM   H16F23212   2.369   5.336   4.353
  192PSM   H16G23213   2.542   5.392   4.352
  192PSM   H16H23214   2.502   5.222   4.307
  193PSM      N23215   5.950   5.711   6.525
  193PSM    C1523216   6.071   5.623   6.528
  193PSM   H15A23217   6.063   5.550   6.449
  193PSM   H15B23218   6.160   5.684   6.509
  193PSM   H15C23219   6.086   5.572   6.623
  193PSM    C1423220   5.825   5.629   6.535
  193PSM   H14A23221   5.831   5.552   6.609
  193PSM   H14B23222   5.739   5.692   6.557
  193PSM   H14C23223   5.802   5.584   6.438
  193PSM    C1323224   5.953   5.809   6.636
  193PSM   H13A23225   5.950   5.762   6.733
  193PSM   H13B23226   6.042   5.872   6.628
  193PSM   H13C23227   5.866   5.874   6.628
  193PSM    C1223228   5.951   5.788   6.393
  193PSM   H12A23229   5.866   5.857   6.396
  193PSM   H12B23230   6.042   5.847   6.387
  193PSM    C1123231   5.931   5.706   6.263
  193PSM   H11A23232   5.959   5.768   6.175
  193PSM   H11B23233   6.000   5.618   6.263
  193PSM      P23234   5.675   5.761   6.241
  193PSM    O1323235   5.551   5.690   6.209
  193PSM    O1423236   5.668   5.853   6.357
  193PSM    O1123237   5.720   5.853   6.121
  193PSM    O1223238   5.797   5.661   6.254
  193PSM    C1S23239   5.620   5.926   6.050
  193PSM    H1S23240   5.522   5.872   6.044
  193PSM    H1T23241   5.604   6.026   6.095
  193PSM     NF23242   5.679   5.812   5.848
  193PSM    HNF23243   5.762   5.762   5.870
  193PSM    C2S23244   5.670   5.943   5.906
  193PSM    H2S23245   5.593   6.001   5.849
  193PSM    C3S23246   5.805   6.018   5.900
  193PSM    H3S23247   5.883   5.962   5.956
  193PSM     O323248   5.797   6.151   5.952
  193PSM    HO323249   5.716   6.154   6.003
  193PSM    C4S23250   5.842   6.025   5.755
  193PSM    H4S23251   5.790   6.105   5.702
  193PSM    C5S23252   5.928   5.943   5.691
  193PSM    H5S23253   5.979   5.864   5.748
  193PSM    C6S23254   5.963   5.948   5.545
  193PSM    H6S23255   6.074   5.949   5.533
  193PSM    H6T23256   5.932   5.851   5.502
  193PSM    C7S23257   5.903   6.062   5.459
  193PSM    H7S23258   5.843   6.135   5.516
  193PSM    H7T23259   5.985   6.122   5.414
  193PSM    C8S23260   5.814   6.008   5.346
  193PSM    H8S23261   5.836   5.900   5.334
  193PSM    H8T23262   5.708   6.017   5.377
  193PSM    C9S23263   5.836   6.072   5.209
  193PSM    H9S23264   5.747   6.046   5.147
  193PSM    H9T23265   5.839   6.183   5.215
  193PSM   C10S23266   5.960   6.013   5.142
  193PSM   H10S23267   6.050   6.074   5.164
  193PSM   H10T23268   5.979   5.913   5.188
  193PSM   C11S23269   5.941   5.988   4.993
  193PSM   H11S23270   5.833   5.978   4.970
  193PSM   H11T23271   5.978   6.075   4.934
  193PSM   C12S23272   6.008   5.857   4.951
  193PSM   H12S23273   6.118   5.862   4.968
  193PSM   H12T23274   5.968   5.775   5.015
  193PSM   C13S23275   5.978   5.823   4.805
  193PSM   H13S23276   5.872   5.845   4.783
  193PSM   H13T23277   6.040   5.886   4.738
  193PSM   C14S23278   6.004   5.675   4.774
  193PSM   H14S23279   6.113   5.657   4.779
  193PSM   H14T23280   5.954   5.611   4.851
  193PSM   C15S23281   5.951   5.639   4.636
  193PSM   H15S23282   5.839   5.639   4.642
  193PSM   H15T23283   5.986   5.715   4.564
  193PSM   C16S23284   5.993   5.501   4.589
  193PSM   H16S23285   6.102   5.501   4.568
  193PSM   H16T23286   5.972   5.433   4.674
  193PSM   C17S23287   5.917   5.450   4.467
  193PSM   H17S23288   5.899   5.341   4.482
  193PSM   H17T23289   5.817   5.500   4.461
  193PSM   C18S23290   5.992   5.465   4.335
  193PSM   H18S23291   6.013   5.573   4.315
  193PSM   H18T23292   6.087   5.410   4.333
  193PSM   H18U23293   5.928   5.425   4.253
  193PSM    C1F23294   5.585   5.748   5.783
  193PSM     OF23295   5.465   5.772   5.795
  193PSM    C2F23296   5.642   5.645   5.692
  193PSM    H2F23297   5.626   5.544   5.734
  193PSM    H2G23298   5.751   5.661   5.682
  193PSM    C3F23299   5.579   5.661   5.554
  193PSM    H3F23300   5.473   5.694   5.558
  193PSM    H3G23301   5.582   5.561   5.508
  193PSM    C4F23302   5.653   5.749   5.457
  193PSM    H4F23303   5.761   5.724   5.456
  193PSM    H4G23304   5.641   5.856   5.486
  193PSM    C5F23305   5.594   5.718   5.320
  193PSM    H5F23306   5.496   5.768   5.308
  193PSM    H5G23307   5.575   5.608   5.316
  193PSM    C6F23308   5.685   5.745   5.202
  193PSM    H6F23309   5.791   5.720   5.223
  193PSM    H6G23310   5.678   5.854   5.178
  193PSM    C7F23311   5.636   5.664   5.084
  193PSM    H7F23312   5.528   5.643   5.102
  193PSM    H7G23313   5.691   5.568   5.075
  193PSM    C8F23314   5.639   5.746   4.958
  193PSM    H8F23315   5.743   5.769   4.929
  193PSM    H8G23316   5.589   5.842   4.982
  193PSM    C9F23317   5.563   5.678   4.844
  193PSM    H9F23318   5.472   5.629   4.884
  193PSM    H9G23319   5.626   5.601   4.795
  193PSM   C10F23320   5.521   5.789   4.749
  193PSM   H10F23321   5.610   5.833   4.703
  193PSM   H10G23322   5.481   5.872   4.811
  193PSM   C11F23323   5.415   5.753   4.644
  193PSM   H11F23324   5.327   5.706   4.693
  193PSM   H11G23325   5.457   5.683   4.570
  193PSM   C12F23326   5.375   5.887   4.583
  193PSM   H12F23327   5.470   5.946   4.581
  193PSM   H12G23328   5.302   5.937   4.649
  193PSM   C13F23329   5.322   5.897   4.441
  193PSM   H13F23330   5.408   5.882   4.375
  193PSM   H13G23331   5.291   6.003   4.424
  193PSM   C14F23332   5.196   5.815   4.414
  193PSM   H14F23333   5.118   5.887   4.448
  193PSM   H14G23334   5.194   5.725   4.480
  193PSM   C15F23335   5.157   5.772   4.271
  193PSM   H15F23336   5.049   5.755   4.271
  193PSM   H15G23337   5.200   5.671   4.253
  193PSM   C16F23338   5.192   5.865   4.154
  193PSM   H16F23339   5.108   5.881   4.086
  193PSM   H16G23340   5.232   5.962   4.190
  193PSM   H16H23341   5.268   5.818   4.088
  194PSM      N23342   5.520   6.363   6.517
  194PSM    C1523343   5.510   6.413   6.657
  194PSM   H15A23344   5.530   6.520   6.659
  194PSM   H15B23345   5.412   6.400   6.700
  194PSM   H15C23346   5.582   6.367   6.722
  194PSM    C1423347   5.662   6.391   6.476
  194PSM   H14A23348   5.680   6.363   6.372
  194PSM   H14B23349   5.678   6.499   6.480
  194PSM   H14C23350   5.732   6.345   6.544
  194PSM    C1323351   5.484   6.219   6.509
  194PSM   H13A23352   5.382   6.199   6.542
  194PSM   H13B23353   5.487   6.183   6.406
  194PSM   H13C23354   5.547   6.157   6.571
  194PSM    C1223355   5.429   6.446   6.428
  194PSM   H12A23356   5.326   6.431   6.455
  194PSM   H12B23357   5.455   6.550   6.446
  194PSM    C1123358   5.443   6.428   6.275
  194PSM   H11A23359   5.439   6.320   6.249
  194PSM   H11B23360   5.357   6.476   6.225
  194PSM      P23361   5.605   6.634   6.225
  194PSM    O1323362   5.598   6.688   6.363
  194PSM    O1423363   5.733   6.646   6.153
  194PSM    O1123364   5.491   6.699   6.136
  194PSM    O1223365   5.567   6.481   6.230
  194PSM    C1S23366   5.447   6.626   6.019
  194PSM    H1S23367   5.498   6.527   6.006
  194PSM    H1T23368   5.338   6.604   6.027
  194PSM     NF23369   5.441   6.616   5.777
  194PSM    HNF23370   5.516   6.568   5.731
  194PSM    C2S23371   5.471   6.705   5.887
  194PSM    H2S23372   5.403   6.793   5.885
  194PSM    C3S23373   5.614   6.761   5.880
  194PSM    H3S23374   5.688   6.685   5.914
  194PSM     O323375   5.621   6.877   5.962
  194PSM    HO323376   5.558   6.857   6.032
  194PSM    C4S23377   5.645   6.803   5.739
  194PSM    H4S23378   5.611   6.904   5.715
  194PSM    C5S23379   5.705   6.729   5.643
  194PSM    H5S23380   5.739   6.626   5.665
  194PSM    C6S23381   5.733   6.779   5.504
  194PSM    H6S23382   5.721   6.888   5.503
  194PSM    H6T23383   5.842   6.761   5.486
  194PSM    C7S23384   5.661   6.723   5.378
  194PSM    H7S23385   5.717   6.763   5.291
  194PSM    H7T23386   5.671   6.613   5.376
  194PSM    C8S23387   5.513   6.763   5.356
  194PSM    H8S23388   5.452   6.725   5.440
  194PSM    H8T23389   5.504   6.874   5.355
  194PSM    C9S23390   5.456   6.707   5.221
  194PSM    H9S23391   5.511   6.756   5.138
  194PSM    H9T23392   5.477   6.598   5.217
  194PSM   C10S23393   5.304   6.729   5.201
  194PSM   H10S23394   5.252   6.695   5.293
  194PSM   H10T23395   5.286   6.839   5.194
  194PSM   C11S23396   5.235   6.659   5.079
  194PSM   H11S23397   5.217   6.553   5.107
  194PSM   H11T23398   5.135   6.706   5.066
  194PSM   C12S23399   5.311   6.662   4.944
  194PSM   H12S23400   5.359   6.761   4.933
  194PSM   H12T23401   5.391   6.586   4.952
  194PSM   C13S23402   5.231   6.634   4.812
  194PSM   H13S23403   5.193   6.530   4.813
  194PSM   H13T23404   5.146   6.704   4.807
  194PSM   C14S23405   5.322   6.658   4.688
  194PSM   H14S23406   5.340   6.767   4.681
  194PSM   H14T23407   5.415   6.605   4.710
  194PSM   C15S23408   5.288   6.608   4.546
  194PSM   H15S23409   5.245   6.507   4.552
  194PSM   H15T23410   5.205   6.670   4.506
  194PSM   C16S23411   5.400   6.618   4.436
  194PSM   H16S23412   5.362   6.551   4.359
  194PSM   H16T23413   5.397   6.720   4.393
  194PSM   C17S23414   5.544   6.558   4.437
  194PSM   H17S23415   5.586   6.553   4.537
  194PSM   H17T23416   5.537   6.453   4.402
  194PSM   C18S23417   5.647   6.623   4.342
  194PSM   H18S23418   5.595   6.678   4.261
  194PSM   H18T23419   5.708   6.698   4.396
  194PSM   H18U23420   5.717   6.550   4.299
  194PSM    C1F23421   5.316   6.607   5.735
  194PSM     OF23422   5.230   6.672   5.792
  194PSM    C2F23423   5.288   6.527   5.613
  194PSM    H2F23424   5.251   6.596   5.534
  194PSM    H2G23425   5.208   6.453   5.634
  194PSM    C3F23426   5.416   6.458   5.565
  194PSM    H3F23427   5.454   6.388   5.643
  194PSM    H3G23428   5.496   6.532   5.542
  194PSM    C4F23429   5.394   6.377   5.438
  194PSM    H4F23430   5.355   6.443   5.357
  194PSM    H4G23431   5.318   6.299   5.457
  194PSM    C5F23432   5.526   6.314   5.395
  194PSM    H5F23433   5.584   6.280   5.484
  194PSM    H5G23434   5.588   6.390   5.342
  194PSM    C6F23435   5.503   6.194   5.305
  194PSM    H6F23436   5.456   6.110   5.361
  194PSM    H6G23437   5.602   6.160   5.268
  194PSM    C7F23438   5.418   6.229   5.184
  194PSM    H7F23439   5.447   6.330   5.148
  194PSM    H7G23440   5.310   6.233   5.213
  194PSM    C8F23441   5.438   6.128   5.073
  194PSM    H8F23442   5.423   6.025   5.112
  194PSM    H8G23443   5.542   6.134   5.034
  194PSM    C9F23444   5.338   6.153   4.960
  194PSM    H9F23445   5.236   6.135   4.999
  194PSM    H9G23446   5.358   6.080   4.880
  194PSM   C10F23447   5.344   6.294   4.903
  194PSM   H10F23448   5.313   6.368   4.981
  194PSM   H10G23449   5.267   6.302   4.824
  194PSM   C11F23450   5.482   6.335   4.850
  194PSM   H11F23451   5.553   6.349   4.935
  194PSM   H11G23452   5.471   6.433   4.801
  194PSM   C12F23453   5.546   6.239   4.749
  194PSM   H12F23454   5.583   6.148   4.802
  194PSM   H12G23455   5.635   6.289   4.704
  194PSM   C13F23456   5.453   6.191   4.636
  194PSM   H13F23457   5.380   6.120   4.679
  194PSM   H13G23458   5.514   6.139   4.560
  194PSM   C14F23459   5.371   6.298   4.565
  194PSM   H14F23460   5.433   6.389   4.568
  194PSM   H14G23461   5.281   6.319   4.627
  194PSM   C15F23462   5.318   6.267   4.423
  194PSM   H15F23463   5.271   6.359   4.383
  194PSM   H15G23464   5.235   6.195   4.435
  194PSM   C16F23465   5.417   6.214   4.318
  194PSM   H16F23466   5.469   6.123   4.354
  194PSM   H16G23467   5.361   6.187   4.226
  194PSM   H16H23468   5.493   6.289   4.290
  195PSM      N23469   1.079   2.327   6.543
  195PSM    C1523470   1.150   2.196   6.552
  195PSM   H15A23471   1.249   2.209   6.594
  195PSM   H15B23472   1.094   2.130   6.616
  195PSM   H15C23473   1.160   2.152   6.453
  195PSM    C1423474   0.938   2.303   6.494
  195PSM   H14A23475   0.882   2.397   6.494
  195PSM   H14B23476   0.940   2.271   6.390
  195PSM   H14C23477   0.885   2.231   6.555
  195PSM    C1323478   1.070   2.385   6.679
  195PSM   H13A23479   1.167   2.395   6.728
  195PSM   H13B23480   1.020   2.481   6.676
  195PSM   H13C23481   1.013   2.317   6.743
  195PSM    C1223482   1.154   2.419   6.448
  195PSM   H12A23483   1.109   2.518   6.453
  195PSM   H12B23484   1.257   2.429   6.480
  195PSM    C1123485   1.150   2.381   6.298
  195PSM   H11A23486   1.222   2.445   6.241
  195PSM   H11B23487   1.182   2.276   6.284
  195PSM      P23488   0.962   2.544   6.224
  195PSM    O1323489   0.816   2.542   6.202
  195PSM    O1423490   1.010   2.630   6.334
  195PSM    O1123491   1.044   2.588   6.095
  195PSM    O1223492   1.016   2.395   6.249
  195PSM    C1S23493   1.056   2.503   5.979
  195PSM    H1S23494   1.163   2.482   5.958
  195PSM    H1T23495   1.007   2.405   5.995
  195PSM     NF23496   0.983   2.484   5.739
  195PSM    HNF23497   1.020   2.516   5.652
  195PSM    C2S23498   0.997   2.574   5.853
  195PSM    H2S23499   0.895   2.611   5.880
  195PSM    C3S23500   1.087   2.696   5.818
  195PSM    H3S23501   1.187   2.657   5.786
  195PSM     O323502   1.110   2.785   5.927
  195PSM    HO323503   1.085   2.730   6.002
  195PSM    C4S23504   1.028   2.775   5.704
  195PSM    H4S23505   0.919   2.787   5.705
  195PSM    C5S23506   1.099   2.831   5.605
  195PSM    H5S23507   1.209   2.824   5.606
  195PSM    C6S23508   1.040   2.910   5.491
  195PSM    H6S23509   1.000   3.005   5.532
  195PSM    H6T23510   1.121   2.938   5.420
  195PSM    C7S23511   0.930   2.839   5.410
  195PSM    H7S23512   0.844   2.810   5.473
  195PSM    H7T23513   0.892   2.911   5.334
  195PSM    C8S23514   0.985   2.718   5.333
  195PSM    H8S23515   1.094   2.734   5.320
  195PSM    H8T23516   0.973   2.625   5.394
  195PSM    C9S23517   0.923   2.700   5.194
  195PSM    H9S23518   0.816   2.672   5.207
  195PSM    H9T23519   0.926   2.797   5.139
  195PSM   C10S23520   0.993   2.593   5.109
  195PSM   H10S23521   0.994   2.497   5.165
  195PSM   H10T23522   0.932   2.579   5.016
  195PSM   C11S23523   1.136   2.629   5.065
  195PSM   H11S23524   1.133   2.712   4.992
  195PSM   H11T23525   1.193   2.664   5.154
  195PSM   C12S23526   1.216   2.511   5.007
  195PSM   H12S23527   1.321   2.546   4.995
  195PSM   H12T23528   1.216   2.428   5.081
  195PSM   C13S23529   1.164   2.457   4.873
  195PSM   H13S23530   1.055   2.446   4.888
  195PSM   H13T23531   1.178   2.531   4.791
  195PSM   C14S23532   1.224   2.321   4.830
  195PSM   H14S23533   1.328   2.336   4.795
  195PSM   H14T23534   1.229   2.253   4.918
  195PSM   C15S23535   1.150   2.249   4.715
  195PSM   H15S23536   1.150   2.314   4.625
  195PSM   H15T23537   1.204   2.155   4.690
  195PSM   C16S23538   1.006   2.218   4.753
  195PSM   H16S23539   1.002   2.146   4.837
  195PSM   H16T23540   0.961   2.313   4.788
  195PSM   C17S23541   0.912   2.179   4.639
  195PSM   H17S23542   0.815   2.149   4.682
  195PSM   H17T23543   0.891   2.271   4.581
  195PSM   C18S23544   0.963   2.073   4.544
  195PSM   H18S23545   0.994   2.123   4.452
  195PSM   H18T23546   1.045   2.011   4.586
  195PSM   H18U23547   0.884   2.007   4.510
  195PSM    C1F23548   0.897   2.383   5.740
  195PSM     OF23549   0.869   2.319   5.840
  195PSM    C2F23550   0.832   2.350   5.610
  195PSM    H2F23551   0.874   2.254   5.575
  195PSM    H2G23552   0.853   2.429   5.535
  195PSM    C3F23553   0.680   2.340   5.636
  195PSM    H3F23554   0.642   2.434   5.682
  195PSM    H3G23555   0.659   2.257   5.707
  195PSM    C4F23556   0.602   2.316   5.508
  195PSM    H4F23557   0.611   2.406   5.444
  195PSM    H4G23558   0.494   2.303   5.532
  195PSM    C5F23559   0.651   2.194   5.430
  195PSM    H5F23560   0.623   2.103   5.485
  195PSM    H5G23561   0.762   2.191   5.421
  195PSM    C6F23562   0.598   2.196   5.289
  195PSM    H6F23563   0.488   2.207   5.286
  195PSM    H6G23564   0.621   2.097   5.243
  195PSM    C7F23565   0.669   2.306   5.209
  195PSM    H7F23566   0.749   2.355   5.268
  195PSM    H7G23567   0.596   2.384   5.179
  195PSM    C8F23568   0.729   2.240   5.086
  195PSM    H8F23569   0.643   2.186   5.044
  195PSM    H8G23570   0.807   2.167   5.117
  195PSM    C9F23571   0.783   2.331   4.976
  195PSM    H9F23572   0.804   2.259   4.894
  195PSM    H9G23573   0.878   2.379   5.005
  195PSM   C10F23574   0.681   2.430   4.923
  195PSM   H10F23575   0.680   2.524   4.981
  195PSM   H10G23576   0.583   2.380   4.939
  195PSM   C11F23577   0.690   2.456   4.772
  195PSM   H11F23578   0.591   2.494   4.737
  195PSM   H11G23579   0.708   2.361   4.718
  195PSM   C12F23580   0.796   2.560   4.736
  195PSM   H12F23581   0.897   2.516   4.754
  195PSM   H12G23582   0.786   2.649   4.801
  195PSM   C13F23583   0.785   2.602   4.590
  195PSM   H13F23584   0.733   2.699   4.584
  195PSM   H13G23585   0.724   2.529   4.533
  195PSM   C14F23586   0.920   2.620   4.521
  195PSM   H14F23587   0.960   2.519   4.497
  195PSM   H14G23588   0.991   2.670   4.590
  195PSM   C15F23589   0.908   2.703   4.393
  195PSM   H15F23590   0.893   2.810   4.419
  195PSM   H15G23591   0.818   2.672   4.337
  195PSM   C16F23592   1.030   2.687   4.304
  195PSM   H16F23593   1.013   2.736   4.206
  195PSM   H16G23594   1.120   2.731   4.352
  195PSM   H16H23595   1.049   2.579   4.286
  196PSM      N23596   4.554   1.960   1.989
  196PSM    C1523597   4.573   1.871   1.872
  196PSM   H15A23598   4.619   1.924   1.789
  196PSM   H15B23599   4.640   1.789   1.899
  196PSM   H15C23600   4.481   1.826   1.838
  196PSM    C1423601   4.500   1.880   2.105
  196PSM   H14A23602   4.487   1.945   2.192
  196PSM   H14B23603   4.406   1.834   2.082
  196PSM   H14C23604   4.570   1.803   2.135
  196PSM    C1323605   4.690   2.010   2.025
  196PSM   H13A23606   4.687   2.066   2.119
  196PSM   H13B23607   4.758   1.926   2.039
  196PSM   H13C23608   4.728   2.078   1.950
  196PSM    C1223609   4.459   2.076   1.957
  196PSM   H12A23610   4.509   2.139   1.883
  196PSM   H12B23611   4.370   2.036   1.911
  196PSM    C1123612   4.411   2.171   2.069
  196PSM   H11A23613   4.333   2.238   2.024
  196PSM   H11B23614   4.359   2.117   2.151
  196PSM      P23615   4.586   2.239   2.255
  196PSM    O1323616   4.733   2.235   2.234
  196PSM    O1423617   4.532   2.340   2.348
  196PSM    O1123618   4.543   2.095   2.304
  196PSM    O1223619   4.517   2.253   2.113
  196PSM    C1S23620   4.615   2.037   2.414
  196PSM    H1S23621   4.576   1.934   2.432
  196PSM    H1T23622   4.723   2.026   2.390
  196PSM     NF23623   4.676   2.043   2.649
  196PSM    HNF23624   4.625   1.980   2.709
  196PSM    C2S23625   4.599   2.115   2.549
  196PSM    H2S23626   4.641   2.217   2.539
  196PSM    C3S23627   4.448   2.126   2.587
  196PSM    H3S23628   4.405   2.024   2.591
  196PSM     O323629   4.361   2.197   2.501
  196PSM    HO323630   4.419   2.237   2.434
  196PSM    C4S23631   4.433   2.194   2.718
  196PSM    H4S23632   4.480   2.294   2.725
  196PSM    C5S23633   4.362   2.143   2.818
  196PSM    H5S23634   4.314   2.045   2.801
  196PSM    C6S23635   4.340   2.202   2.953
  196PSM    H6S23636   4.255   2.274   2.951
  196PSM    H6T23637   4.311   2.121   3.023
  196PSM    C7S23638   4.463   2.272   3.011
  196PSM    H7S23639   4.556   2.213   2.993
  196PSM    H7T23640   4.475   2.370   2.961
  196PSM    C8S23641   4.446   2.292   3.161
  196PSM    H8S23642   4.337   2.304   3.185
  196PSM    H8T23643   4.483   2.201   3.214
  196PSM    C9S23644   4.519   2.416   3.210
  196PSM    H9S23645   4.627   2.399   3.189
  196PSM    H9T23646   4.484   2.503   3.150
  196PSM   C10S23647   4.500   2.447   3.359
  196PSM   H10S23648   4.522   2.556   3.375
  196PSM   H10T23649   4.395   2.430   3.389
  196PSM   C11S23650   4.597   2.366   3.446
  196PSM   H11S23651   4.580   2.258   3.431
  196PSM   H11T23652   4.701   2.387   3.413
  196PSM   C12S23653   4.588   2.398   3.596
  196PSM   H12S23654   4.601   2.507   3.612
  196PSM   H12T23655   4.486   2.370   3.633
  196PSM   C13S23656   4.695   2.323   3.675
  196PSM   H13S23657   4.694   2.215   3.648
  196PSM   H13T23658   4.794   2.362   3.646
  196PSM   C14S23659   4.678   2.336   3.827
  196PSM   H14S23660   4.667   2.444   3.848
  196PSM   H14T23661   4.584   2.288   3.859
  196PSM   C15S23662   4.799   2.281   3.905
  196PSM   H15S23663   4.838   2.191   3.854
  196PSM   H15T23664   4.882   2.352   3.896
  196PSM   C16S23665   4.771   2.250   4.054
  196PSM   H16S23666   4.862   2.267   4.113
  196PSM   H16T23667   4.691   2.317   4.092
  196PSM   C17S23668   4.727   2.104   4.070
  196PSM   H17S23669   4.616   2.109   4.062
  196PSM   H17T23670   4.772   2.055   3.981
  196PSM   C18S23671   4.763   2.009   4.185
  196PSM   H18S23672   4.742   1.905   4.152
  196PSM   H18T23673   4.869   2.011   4.212
  196PSM   H18U23674   4.699   2.025   4.275
  196PSM    C1F23675   4.809   2.048   2.648
  196PSM     OF23676   4.868   2.122   2.571
  196PSM    C2F23677   4.881   1.952   2.737
  196PSM    H2F23678   4.917   1.867   2.675
  196PSM    H2G23679   4.811   1.913   2.813
  196PSM    C3F23680   5.001   2.019   2.807
  196PSM    H3F23681   4.976   2.118   2.848
  196PSM    H3G23682   5.078   2.034   2.727
  196PSM    C4F23683   5.066   1.934   2.917
  196PSM    H4F23684   5.171   1.968   2.926
  196PSM    H4G23685   5.074   1.830   2.879
  196PSM    C5F23686   5.006   1.938   3.061
  196PSM    H5F23687   5.081   1.988   3.126
  196PSM    H5G23688   5.000   1.834   3.099
  196PSM    C6F23689   4.870   2.007   3.087
  196PSM    H6F23690   4.797   1.981   3.007
  196PSM    H6G23691   4.885   2.117   3.077
  196PSM    C7F23692   4.807   1.973   3.225
  196PSM    H7F23693   4.787   2.068   3.279
  196PSM    H7G23694   4.878   1.913   3.286
  196PSM    C8F23695   4.670   1.905   3.217
  196PSM    H8F23696   4.678   1.798   3.193
  196PSM    H8G23697   4.624   1.960   3.132
  196PSM    C9F23698   4.571   1.928   3.334
  196PSM    H9F23699   4.469   1.917   3.294
  196PSM    H9G23700   4.581   2.035   3.363
  196PSM   C10F23701   4.590   1.842   3.461
  196PSM   H10F23702   4.588   1.912   3.546
  196PSM   H10G23703   4.694   1.807   3.452
  196PSM   C11F23704   4.503   1.719   3.499
  196PSM   H11F23705   4.574   1.635   3.496
  196PSM   H11G23706   4.422   1.692   3.431
  196PSM   C12F23707   4.452   1.707   3.645
  196PSM   H12F23708   4.513   1.779   3.701
  196PSM   H12G23709   4.478   1.607   3.685
  196PSM   C13F23710   4.302   1.731   3.668
  196PSM   H13F23711   4.255   1.636   3.627
  196PSM   H13G23712   4.264   1.816   3.607
  196PSM   C14F23713   4.248   1.742   3.815
  196PSM   H14F23714   4.270   1.654   3.879
  196PSM   H14G23715   4.148   1.722   3.778
  196PSM   C15F23716   4.206   1.870   3.896
  196PSM   H15F23717   4.095   1.872   3.899
  196PSM   H15G23718   4.230   1.962   3.843
  196PSM   C16F23719   4.242   1.879   4.046
  196PSM   H16F23720   4.173   1.948   4.099
  196PSM   H16G23721   4.234   1.779   4.095
  196PSM   H16H23722   4.345   1.917   4.063
  197PSM      N23723   5.835   3.063   2.044
  197PSM    C1523724   5.870   2.937   2.119
  197PSM   H15A23725   5.782   2.904   2.176
  197PSM   H15B23726   5.902   2.856   2.057
  197PSM   H15C23727   5.944   2.956   2.197
  197PSM    C1423728   5.957   3.120   1.986
  197PSM   H14A23729   6.019   3.044   1.940
  197PSM   H14B23730   5.936   3.194   1.909
  197PSM   H14C23731   6.018   3.166   2.063
  197PSM    C1323732   5.731   3.027   1.941
  197PSM   H13A23733   5.642   2.987   1.991
  197PSM   H13B23734   5.697   3.113   1.884
  197PSM   H13C23735   5.769   2.951   1.875
  197PSM    C1223736   5.781   3.162   2.146
  197PSM   H12A23737   5.838   3.146   2.238
  197PSM   H12B23738   5.798   3.262   2.111
  197PSM    C1123739   5.635   3.144   2.185
  197PSM   H11A23740   5.607   3.211   2.269
  197PSM   H11B23741   5.573   3.173   2.097
  197PSM      P23742   5.464   2.956   2.223
  197PSM    O1323743   5.380   3.078   2.212
  197PSM    O1423744   5.454   2.856   2.114
  197PSM    O1123745   5.455   2.887   2.364
  197PSM    O1223746   5.614   3.008   2.222
  197PSM    C1S23747   5.568   2.822   2.420
  197PSM    H1S23748   5.537   2.723   2.462
  197PSM    H1T23749   5.648   2.800   2.345
  197PSM     NF23750   5.758   2.861   2.571
  197PSM    HNF23751   5.765   2.803   2.651
  197PSM    C2S23752   5.627   2.910   2.533
  197PSM    H2S23753   5.637   3.015   2.496
  197PSM    C3S23754   5.525   2.909   2.650
  197PSM    H3S23755   5.498   2.803   2.674
  197PSM     O323756   5.405   2.979   2.622
  197PSM    HO323757   5.385   2.958   2.529
  197PSM    C4S23758   5.586   2.968   2.775
  197PSM    H4S23759   5.619   2.890   2.844
  197PSM    C5S23760   5.598   3.097   2.811
  197PSM    H5S23761   5.561   3.176   2.743
  197PSM    C6S23762   5.662   3.145   2.939
  197PSM    H6S23763   5.755   3.200   2.913
  197PSM    H6T23764   5.595   3.219   2.990
  197PSM    C7S23765   5.701   3.039   3.044
  197PSM    H7S23766   5.754   2.956   2.993
  197PSM    H7T23767   5.772   3.087   3.115
  197PSM    C8S23768   5.588   2.975   3.128
  197PSM    H8S23769   5.532   3.054   3.181
  197PSM    H8T23770   5.518   2.922   3.061
  197PSM    C9S23771   5.648   2.874   3.229
  197PSM    H9S23772   5.716   2.805   3.174
  197PSM    H9T23773   5.710   2.929   3.302
  197PSM   C10S23774   5.546   2.788   3.305
  197PSM   H10S23775   5.477   2.741   3.231
  197PSM   H10T23776   5.599   2.706   3.358
  197PSM   C11S23777   5.465   2.867   3.408
  197PSM   H11S23778   5.438   2.965   3.364
  197PSM   H11T23779   5.371   2.812   3.431
  197PSM   C12S23780   5.537   2.890   3.542
  197PSM   H12S23781   5.539   2.794   3.598
  197PSM   H12T23782   5.643   2.921   3.523
  197PSM   C13S23783   5.468   2.998   3.626
  197PSM   H13S23784   5.484   3.098   3.580
  197PSM   H13T23785   5.359   2.980   3.623
  197PSM   C14S23786   5.514   2.998   3.773
  197PSM   H14S23787   5.437   3.049   3.835
  197PSM   H14T23788   5.518   2.893   3.808
  197PSM   C15S23789   5.650   3.065   3.796
  197PSM   H15S23790   5.686   3.040   3.899
  197PSM   H15T23791   5.722   3.020   3.724
  197PSM   C16S23792   5.652   3.218   3.780
  197PSM   H16S23793   5.757   3.255   3.782
  197PSM   H16T23794   5.610   3.243   3.680
  197PSM   C17S23795   5.572   3.293   3.887
  197PSM   H17S23796   5.555   3.398   3.852
  197PSM   H17T23797   5.473   3.244   3.898
  197PSM   C18S23798   5.635   3.299   4.026
  197PSM   H18S23799   5.733   3.350   4.021
  197PSM   H18T23800   5.569   3.354   4.096
  197PSM   H18U23801   5.651   3.196   4.066
  197PSM    C1F23802   5.867   2.880   2.496
  197PSM     OF23803   5.874   2.958   2.402
  197PSM    C2F23804   5.985   2.802   2.536
  197PSM    H2F23805   6.077   2.843   2.488
  197PSM    H2G23806   5.972   2.697   2.502
  197PSM    C3F23807   6.000   2.805   2.689
  197PSM    H3F23808   6.085   2.738   2.708
  197PSM    H3G23809   5.914   2.762   2.744
  197PSM    C4F23810   6.045   2.938   2.750
  197PSM    H4F23811   5.959   3.005   2.770
  197PSM    H4G23812   6.114   2.991   2.680
  197PSM    C5F23813   6.123   2.911   2.879
  197PSM    H5F23814   6.171   3.005   2.914
  197PSM    H5G23815   6.204   2.838   2.856
  197PSM    C6F23816   6.033   2.853   2.989
  197PSM    H6F23817   6.006   2.747   2.969
  197PSM    H6G23818   5.939   2.912   2.984
  197PSM    C7F23819   6.087   2.870   3.131
  197PSM    H7F23820   6.196   2.889   3.128
  197PSM    H7G23821   6.071   2.777   3.190
  197PSM    C8F23822   6.016   2.987   3.199
  197PSM    H8F23823   5.911   2.956   3.216
  197PSM    H8G23824   6.017   3.075   3.132
  197PSM    C9F23825   6.077   3.025   3.334
  197PSM    H9F23826   6.183   3.056   3.322
  197PSM    H9G23827   6.075   2.932   3.393
  197PSM   C10F23828   5.996   3.137   3.401
  197PSM   H10F23829   5.887   3.115   3.388
  197PSM   H10G23830   6.016   3.234   3.350
  197PSM   C11F23831   6.022   3.150   3.552
  197PSM   H11F23832   5.957   3.229   3.595
  197PSM   H11G23833   6.128   3.180   3.569
  197PSM   C12F23834   5.994   3.017   3.623
  197PSM   H12F23835   6.069   2.942   3.590
  197PSM   H12G23836   5.893   2.980   3.593
  197PSM   C13F23837   6.005   3.020   3.775
  197PSM   H13F23838   5.925   3.083   3.820
  197PSM   H13G23839   6.103   3.065   3.803
  197PSM   C14F23840   5.997   2.877   3.830
  197PSM   H14F23841   6.049   2.807   3.760
  197PSM   H14G23842   5.891   2.846   3.835
  197PSM   C15F23843   6.064   2.864   3.967
  197PSM   H15F23844   6.172   2.884   3.954
  197PSM   H15G23845   6.054   2.759   4.002
  197PSM   C16F23846   6.006   2.960   4.070
  197PSM   H16F23847   6.043   3.063   4.050
  197PSM   H16G23848   5.895   2.962   4.066
  197PSM   H16H23849   6.036   2.931   4.173
  198PSM      N23850   2.655   2.426   2.032
  198PSM    C1523851   2.587   2.295   2.012
  198PSM   H15A23852   2.536   2.293   1.916
  198PSM   H15B23853   2.656   2.211   2.017
  198PSM   H15C23854   2.511   2.282   2.089
  198PSM    C1423855   2.700   2.441   2.174
  198PSM   H14A23856   2.755   2.534   2.187
  198PSM   H14B23857   2.613   2.447   2.239
  198PSM   H14C23858   2.764   2.361   2.209
  198PSM    C1323859   2.776   2.433   1.946
  198PSM   H13A23860   2.747   2.446   1.842
  198PSM   H13B23861   2.839   2.516   1.978
  198PSM   H13C23862   2.832   2.341   1.958
  198PSM    C1223863   2.558   2.540   2.000
  198PSM   H12A23864   2.593   2.633   2.045
  198PSM   H12B23865   2.557   2.558   1.893
  198PSM    C1123866   2.410   2.520   2.045
  198PSM   H11A23867   2.356   2.615   2.024
  198PSM   H11B23868   2.367   2.442   1.979
  198PSM      P23869   2.266   2.414   2.233
  198PSM    O1323870   2.164   2.514   2.269
  198PSM    O1423871   2.220   2.319   2.128
  198PSM    O1123872   2.313   2.333   2.360
  198PSM    O1223873   2.398   2.485   2.183
  198PSM    C1S23874   2.430   2.251   2.349
  198PSM    H1S23875   2.409   2.161   2.287
  198PSM    H1T23876   2.516   2.306   2.304
  198PSM     NF23877   2.607   2.141   2.470
  198PSM    HNF23878   2.611   2.048   2.435
  198PSM    C2S23879   2.478   2.204   2.488
  198PSM    H2S23880   2.488   2.294   2.553
  198PSM    C3S23881   2.374   2.107   2.548
  198PSM    H3S23882   2.379   2.011   2.494
  198PSM     O323883   2.241   2.154   2.536
  198PSM    HO323884   2.249   2.233   2.480
  198PSM    C4S23885   2.405   2.079   2.696
  198PSM    H4S23886   2.480   2.000   2.708
  198PSM    C5S23887   2.349   2.133   2.807
  198PSM    H5S23888   2.268   2.208   2.795
  198PSM    C6S23889   2.379   2.102   2.953
  198PSM    H6S23890   2.442   2.182   2.998
  198PSM    H6T23891   2.282   2.105   3.008
  198PSM    C7S23892   2.443   1.966   2.989
  198PSM    H7S23893   2.417   1.889   2.914
  198PSM    H7T23894   2.554   1.977   2.987
  198PSM    C8S23895   2.403   1.909   3.127
  198PSM    H8S23896   2.299   1.869   3.123
  198PSM    H8T23897   2.470   1.823   3.149
  198PSM    C9S23898   2.413   2.010   3.242
  198PSM    H9S23899   2.514   2.057   3.238
  198PSM    H9T23900   2.338   2.090   3.229
  198PSM   C10S23901   2.395   1.945   3.379
  198PSM   H10S23902   2.298   1.890   3.385
  198PSM   H10T23903   2.477   1.871   3.393
  198PSM   C11S23904   2.403   2.048   3.492
  198PSM   H11S23905   2.437   2.001   3.586
  198PSM   H11T23906   2.478   2.125   3.465
  198PSM   C12S23907   2.270   2.118   3.521
  198PSM   H12S23908   2.225   2.158   3.428
  198PSM   H12T23909   2.200   2.044   3.565
  198PSM   C13S23910   2.292   2.234   3.619
  198PSM   H13S23911   2.373   2.206   3.691
  198PSM   H13T23912   2.328   2.322   3.563
  198PSM   C14S23913   2.166   2.269   3.697
  198PSM   H14S23914   2.173   2.375   3.729
  198PSM   H14T23915   2.077   2.261   3.631
  198PSM   C15S23916   2.147   2.181   3.822
  198PSM   H15S23917   2.045   2.202   3.854
  198PSM   H15T23918   2.156   2.073   3.800
  198PSM   C16S23919   2.247   2.224   3.930
  198PSM   H16S23920   2.350   2.190   3.903
  198PSM   H16T23921   2.241   2.334   3.922
  198PSM   C17S23922   2.223   2.200   4.079
  198PSM   H17S23923   2.153   2.116   4.095
  198PSM   H17T23924   2.321   2.171   4.124
  198PSM   C18S23925   2.180   2.330   4.149
  198PSM   H18S23926   2.236   2.419   4.116
  198PSM   H18T23927   2.072   2.350   4.130
  198PSM   H18U23928   2.195   2.322   4.258
  198PSM    C1F23929   2.720   2.204   2.500
  198PSM     OF23930   2.732   2.325   2.491
  198PSM    C2F23931   2.823   2.111   2.553
  198PSM    H2F23932   2.921   2.124   2.502
  198PSM    H2G23933   2.786   2.008   2.536
  198PSM    C3F23934   2.839   2.126   2.705
  198PSM    H3F23935   2.911   2.210   2.723
  198PSM    H3G23936   2.884   2.032   2.744
  198PSM    C4F23937   2.713   2.153   2.788
  198PSM    H4F23938   2.677   2.058   2.833
  198PSM    H4G23939   2.630   2.198   2.730
  198PSM    C5F23940   2.741   2.256   2.897
  198PSM    H5F23941   2.647   2.285   2.949
  198PSM    H5G23942   2.782   2.347   2.849
  198PSM    C6F23943   2.841   2.199   2.997
  198PSM    H6F23944   2.916   2.138   2.945
  198PSM    H6G23945   2.786   2.128   3.062
  198PSM    C7F23946   2.915   2.309   3.071
  198PSM    H7F23947   2.934   2.392   3.000
  198PSM    H7G23948   3.014   2.278   3.111
  198PSM    C8F23949   2.831   2.354   3.188
  198PSM    H8F23950   2.729   2.378   3.150
  198PSM    H8G23951   2.872   2.446   3.233
  198PSM    C9F23952   2.823   2.243   3.292
  198PSM    H9F23953   2.907   2.255   3.365
  198PSM    H9G23954   2.833   2.141   3.251
  198PSM   C10F23955   2.689   2.253   3.362
  198PSM   H10F23956   2.684   2.173   3.438
  198PSM   H10G23957   2.605   2.240   3.291
  198PSM   C11F23958   2.682   2.390   3.426
  198PSM   H11F23959   2.639   2.467   3.358
  198PSM   H11G23960   2.787   2.420   3.445
  198PSM   C12F23961   2.614   2.385   3.560
  198PSM   H12F23962   2.580   2.282   3.587
  198PSM   H12G23963   2.523   2.449   3.555
  198PSM   C13F23964   2.713   2.433   3.665
  198PSM   H13F23965   2.766   2.523   3.624
  198PSM   H13G23966   2.789   2.357   3.690
  198PSM   C14F23967   2.639   2.482   3.785
  198PSM   H14F23968   2.555   2.542   3.743
  198PSM   H14G23969   2.706   2.547   3.846
  198PSM   C15F23970   2.576   2.381   3.878
  198PSM   H15F23971   2.652   2.353   3.954
  198PSM   H15G23972   2.545   2.288   3.824
  198PSM   C16F23973   2.456   2.449   3.941
  198PSM   H16F23974   2.376   2.462   3.865
  198PSM   H16G23975   2.420   2.394   4.030
  198PSM   H16H23976   2.477   2.550   3.977
  199PSM      N23977   5.796   3.813   2.278
  199PSM    C1523978   5.756   3.853   2.416
  199PSM   H15A23979   5.841   3.885   2.475
  199PSM   H15B23980   5.686   3.938   2.412
  199PSM   H15C23981   5.702   3.774   2.468
  199PSM    C1423982   5.675   3.767   2.204
  199PSM   H14A23983   5.703   3.737   2.104
  199PSM   H14B23984   5.619   3.692   2.258
  199PSM   H14C23985   5.605   3.851   2.192
  199PSM    C1323986   5.843   3.939   2.213
  199PSM   H13A23987   5.930   3.979   2.264
  199PSM   H13B23988   5.871   3.918   2.110
  199PSM   H13C23989   5.769   4.019   2.215
  199PSM    C1223990   5.905   3.706   2.280
  199PSM   H12A23991   5.989   3.746   2.334
  199PSM   H12B23992   5.871   3.621   2.336
  199PSM    C1123993   5.964   3.656   2.145
  199PSM   H11A23994   6.042   3.580   2.171
  199PSM   H11B23995   5.887   3.604   2.084
  199PSM      P23996   6.136   3.749   1.968
  199PSM    O1323997   6.173   3.605   1.957
  199PSM    O1423998   6.099   3.827   1.848
  199PSM    O1123999   6.251   3.827   2.045
  199PSM    O1224000   6.019   3.765   2.072
  199PSM    C1S24001   6.235   3.942   2.129
  199PSM    H1S24002   6.331   3.997   2.128
  199PSM    H1T24003   6.157   4.010   2.087
  199PSM     NF24004   6.218   4.019   2.378
  199PSM    HNF24005   6.250   3.992   2.468
  199PSM    C2S24006   6.200   3.909   2.279
  199PSM    H2S24007   6.094   3.880   2.282
  199PSM    C3S24008   6.287   3.788   2.321
  199PSM    H3S24009   6.391   3.818   2.301
  199PSM     O324010   6.264   3.665   2.253
  199PSM    HO324011   6.271   3.693   2.161
  199PSM    C4S24012   6.268   3.762   2.467
  199PSM    H4S24013   6.358   3.786   2.525
  199PSM    C5S24014   6.164   3.707   2.532
  199PSM    H5S24015   6.075   3.670   2.478
  199PSM    C6S24016   6.165   3.686   2.680
  199PSM    H6S24017   6.090   3.610   2.710
  199PSM    H6T24018   6.265   3.647   2.709
  199PSM    C7S24019   6.148   3.811   2.764
  199PSM    H7S24020   6.218   3.890   2.727
  199PSM    H7T24021   6.043   3.848   2.759
  199PSM    C8S24022   6.190   3.783   2.907
  199PSM    H8S24023   6.288   3.731   2.912
  199PSM    H8T24024   6.205   3.879   2.958
  199PSM    C9S24025   6.086   3.703   2.983
  199PSM    H9S24026   5.987   3.755   2.975
  199PSM    H9T24027   6.076   3.602   2.936
  199PSM   C10S24028   6.121   3.688   3.130
  199PSM   H10S24029   6.220   3.638   3.143
  199PSM   H10T24030   6.130   3.790   3.175
  199PSM   C11S24031   6.011   3.610   3.202
  199PSM   H11S24032   5.918   3.614   3.140
  199PSM   H11T24033   6.039   3.503   3.212
  199PSM   C12S24034   5.978   3.670   3.338
  199PSM   H12S24035   5.956   3.779   3.327
  199PSM   H12T24036   5.885   3.621   3.373
  199PSM   C13S24037   6.093   3.650   3.437
  199PSM   H13S24038   6.135   3.548   3.423
  199PSM   H13T24039   6.175   3.723   3.415
  199PSM   C14S24040   6.051   3.664   3.584
  199PSM   H14S24041   6.137   3.636   3.648
  199PSM   H14T24042   6.026   3.770   3.604
  199PSM   C15S24043   5.931   3.574   3.619
  199PSM   H15S24044   5.837   3.622   3.582
  199PSM   H15T24045   5.942   3.477   3.565
  199PSM   C16S24046   5.916   3.545   3.768
  199PSM   H16S24047   5.826   3.481   3.784
  199PSM   H16T24048   6.004   3.486   3.802
  199PSM   C17S24049   5.903   3.671   3.854
  199PSM   H17S24050   5.931   3.761   3.794
  199PSM   H17T24051   5.796   3.685   3.879
  199PSM   C18S24052   5.990   3.671   3.980
  199PSM   H18S24053   5.976   3.766   4.036
  199PSM   H18T24054   5.962   3.587   4.047
  199PSM   H18U24055   6.097   3.662   3.953
  199PSM    C1F24056   6.150   4.134   2.377
  199PSM     OF24057   6.083   4.164   2.280
  199PSM    C2F24058   6.164   4.225   2.498
  199PSM    H2F24059   6.174   4.329   2.460
  199PSM    H2G24060   6.256   4.202   2.555
  199PSM    C3F24061   6.042   4.224   2.594
  199PSM    H3F24062   5.948   4.209   2.536
  199PSM    H3G24063   6.033   4.323   2.643
  199PSM    C4F24064   6.050   4.116   2.704
  199PSM    H4F24065   6.106   4.032   2.659
  199PSM    H4G24066   5.948   4.080   2.725
  199PSM    C5F24067   6.113   4.164   2.838
  199PSM    H5F24068   6.083   4.269   2.851
  199PSM    H5G24069   6.224   4.161   2.828
  199PSM    C6F24070   6.073   4.088   2.967
  199PSM    H6F24071   6.168   4.058   3.018
  199PSM    H6G24072   6.016   3.996   2.940
  199PSM    C7F24073   5.995   4.162   3.077
  199PSM    H7F24074   5.895   4.114   3.086
  199PSM    H7G24075   5.978   4.268   3.048
  199PSM    C8F24076   6.061   4.159   3.218
  199PSM    H8F24077   6.164   4.201   3.215
  199PSM    H8G24078   6.069   4.053   3.251
  199PSM    C9F24079   5.975   4.238   3.319
  199PSM    H9F24080   5.870   4.206   3.300
  199PSM    H9G24081   5.980   4.346   3.295
  199PSM   C10F24082   6.001   4.216   3.470
  199PSM   H10F24083   6.056   4.303   3.511
  199PSM   H10G24084   6.061   4.124   3.488
  199PSM   C11F24085   5.866   4.202   3.543
  199PSM   H11F24086   5.809   4.117   3.500
  199PSM   H11G24087   5.808   4.295   3.522
  199PSM   C12F24088   5.872   4.188   3.696
  199PSM   H12F24089   5.784   4.242   3.738
  199PSM   H12G24090   5.963   4.237   3.735
  199PSM   C13F24091   5.861   4.042   3.745
  199PSM   H13F24092   5.956   3.989   3.722
  199PSM   H13G24093   5.779   3.991   3.690
  199PSM   C14F24094   5.829   4.032   3.895
  199PSM   H14F24095   5.833   3.926   3.927
  199PSM   H14G24096   5.725   4.067   3.909
  199PSM   C15F24097   5.921   4.115   3.985
  199PSM   H15F24098   5.895   4.095   4.092
  199PSM   H15G24099   5.894   4.221   3.966
  199PSM   C16F24100   6.071   4.094   3.965
  199PSM   H16F24101   6.104   4.132   3.866
  199PSM   H16G24102   6.130   4.148   4.043
  199PSM   H16H24103   6.097   3.986   3.971
  200PSM      N24104   1.977   2.934   2.031
  200PSM    C1524105   2.056   2.854   2.133
  200PSM   H15A24106   2.018   2.877   2.232
  200PSM   H15B24107   2.051   2.746   2.120
  200PSM   H15C24108   2.162   2.878   2.132
  200PSM    C1424109   1.989   3.078   2.074
  200PSM   H14A24110   1.932   3.144   2.011
  200PSM   H14B24111   1.940   3.087   2.172
  200PSM   H14C24112   2.090   3.111   2.088
  200PSM    C1324113   2.036   2.916   1.896
  200PSM   H13A24114   2.031   2.813   1.864
  200PSM   H13B24115   1.983   2.977   1.822
  200PSM   H13C24116   2.140   2.945   1.900
  200PSM    C1224117   1.830   2.895   2.031
  200PSM   H12A24118   1.777   2.962   1.962
  200PSM   H12B24119   1.818   2.795   1.991
  200PSM    C1124120   1.754   2.904   2.165
  200PSM   H11A24121   1.651   2.864   2.153
  200PSM   H11B24122   1.805   2.842   2.242
  200PSM      P24123   1.632   3.135   2.219
  200PSM    O1324124   1.673   3.266   2.167
  200PSM    O1424125   1.513   3.074   2.154
  200PSM    O1124126   1.609   3.143   2.376
  200PSM    O1224127   1.756   3.039   2.208
  200PSM    C1S24128   1.676   3.046   2.457
  200PSM    H1S24129   1.636   2.944   2.438
  200PSM    H1T24130   1.787   3.045   2.439
  200PSM     NF24131   1.719   2.971   2.687
  200PSM    HNF24132   1.659   2.899   2.719
  200PSM    C2S24133   1.661   3.079   2.607
  200PSM    H2S24134   1.715   3.174   2.627
  200PSM    C3S24135   1.510   3.102   2.640
  200PSM    H3S24136   1.451   3.011   2.610
  200PSM     O324137   1.448   3.213   2.576
  200PSM    HO324138   1.505   3.231   2.500
  200PSM    C4S24139   1.494   3.119   2.787
  200PSM    H4S24140   1.403   3.075   2.829
  200PSM    C5S24141   1.576   3.188   2.869
  200PSM    H5S24142   1.664   3.241   2.829
  200PSM    C6S24143   1.554   3.201   3.015
  200PSM    H6S24144   1.514   3.302   3.034
  200PSM    H6T24145   1.476   3.128   3.051
  200PSM    C7S24146   1.678   3.181   3.103
  200PSM    H7S24147   1.696   3.072   3.109
  200PSM    H7T24148   1.768   3.230   3.061
  200PSM    C8S24149   1.651   3.228   3.245
  200PSM    H8S24150   1.656   3.338   3.253
  200PSM    H8T24151   1.547   3.200   3.267
  200PSM    C9S24152   1.732   3.157   3.352
  200PSM    H9S24153   1.696   3.052   3.353
  200PSM    H9T24154   1.840   3.157   3.329
  200PSM   C10S24155   1.706   3.218   3.490
  200PSM   H10S24156   1.785   3.290   3.513
  200PSM   H10T24157   1.610   3.273   3.489
  200PSM   C11S24158   1.701   3.114   3.601
  200PSM   H11S24159   1.608   3.127   3.660
  200PSM   H11T24160   1.700   3.016   3.551
  200PSM   C12S24161   1.817   3.110   3.698
  200PSM   H12S24162   1.913   3.107   3.644
  200PSM   H12T24163   1.815   3.203   3.760
  200PSM   C13S24164   1.799   2.993   3.794
  200PSM   H13S24165   1.787   3.043   3.892
  200PSM   H13T24166   1.703   2.943   3.773
  200PSM   C14S24167   1.910   2.885   3.797
  200PSM   H14S24168   1.941   2.850   3.696
  200PSM   H14T24169   1.996   2.931   3.850
  200PSM   C15S24170   1.881   2.767   3.888
  200PSM   H15S24171   1.813   2.693   3.842
  200PSM   H15T24172   1.977   2.715   3.913
  200PSM   C16S24173   1.820   2.833   4.011
  200PSM   H16S24174   1.867   2.932   4.032
  200PSM   H16T24175   1.711   2.846   3.992
  200PSM   C17S24176   1.840   2.759   4.138
  200PSM   H17S24177   1.750   2.786   4.196
  200PSM   H17T24178   1.843   2.651   4.113
  200PSM   C18S24179   1.959   2.802   4.222
  200PSM   H18S24180   2.054   2.793   4.165
  200PSM   H18T24181   1.947   2.908   4.254
  200PSM   H18U24182   1.965   2.740   4.314
  200PSM    C1F24183   1.850   2.963   2.718
  200PSM     OF24184   1.931   3.038   2.665
  200PSM    C2F24185   1.891   2.858   2.819
  200PSM    H2F24186   1.998   2.835   2.805
  200PSM    H2G24187   1.832   2.765   2.801
  200PSM    C3F24188   1.867   2.908   2.965
  200PSM    H3F24189   1.767   2.956   2.966
  200PSM    H3G24190   1.944   2.984   2.990
  200PSM    C4F24191   1.867   2.798   3.074
  200PSM    H4F24192   1.956   2.734   3.065
  200PSM    H4G24193   1.777   2.734   3.057
  200PSM    C5F24194   1.861   2.855   3.218
  200PSM    H5F24195   1.801   2.788   3.284
  200PSM    H5G24196   1.809   2.952   3.215
  200PSM    C6F24197   2.000   2.875   3.279
  200PSM    H6F24198   2.059   2.936   3.207
  200PSM    H6G24199   2.047   2.774   3.285
  200PSM    C7F24200   2.014   2.941   3.419
  200PSM    H7F24201   1.933   2.907   3.487
  200PSM    H7G24202   2.004   3.051   3.409
  200PSM    C8F24203   2.152   2.908   3.480
  200PSM    H8F24204   2.217   2.893   3.393
  200PSM    H8G24205   2.148   2.809   3.531
  200PSM    C9F24206   2.228   3.012   3.566
  200PSM    H9F24207   2.208   3.115   3.531
  200PSM    H9G24208   2.337   2.997   3.554
  200PSM   C10F24209   2.190   2.992   3.711
  200PSM   H10F24210   2.200   2.884   3.739
  200PSM   H10G24211   2.084   3.019   3.706
  200PSM   C11F24212   2.247   3.079   3.824
  200PSM   H11F24213   2.357   3.075   3.832
  200PSM   H11G24214   2.206   3.036   3.918
  200PSM   C12F24215   2.200   3.224   3.813
  200PSM   H12F24216   2.101   3.227   3.761
  200PSM   H12G24217   2.272   3.281   3.751
  200PSM   C13F24218   2.181   3.293   3.949
  200PSM   H13F24219   2.155   3.399   3.929
  200PSM   H13G24220   2.277   3.290   4.005
  200PSM   C14F24221   2.068   3.232   4.034
  200PSM   H14F24222   2.103   3.137   4.081
  200PSM   H14G24223   1.981   3.207   3.970
  200PSM   C15F24224   2.022   3.327   4.145
  200PSM   H15F24225   1.944   3.276   4.206
  200PSM   H15G24226   1.977   3.418   4.101
  200PSM   C16F24227   2.138   3.369   4.235
  200PSM   H16F24228   2.188   3.278   4.275
  200PSM   H16G24229   2.213   3.429   4.180
  200PSM   H16H24230   2.100   3.431   4.319
  201SOD    SOD24231   0.184   5.488   6.790
  202SOD    SOD24232   5.557   7.337   1.849
  203SOD    SOD24233   2.320   6.121   0.192
  204SOD    SOD24234   0.159   0.506   1.002
  205SOD    SOD24235   6.790   4.727   7.816
  206SOD    SOD24236   6.610   6.734   6.813
  207SOD    SOD24237   7.559   0.057   0.204
  208SOD    SOD24238   6.005   4.069   0.913
  209SOD    SOD24239   2.367   6.488   7.547
  210SOD    SOD24240   2.790   4.371   8.241
  211SOD    SOD24241   1.388   6.400   0.484
  212SOD    SOD24242   2.896   7.110   1.763
  213SOD    SOD24243   7.234   3.290   7.038
  214SOD    SOD24244   6.068   2.989   7.388
  215SOD    SOD24245   1.592   2.693   8.066
  216SOD    SOD24246   7.706   7.042   7.049
  217SOD    SOD24247   6.871   3.332   6.704
  218SOD    SOD24248   2.324   6.466   6.949
  219SOD    SOD24249   5.061   7.105   8.475
  220SOD    SOD24250   2.205   4.054   0.774
  221SOD    SOD24251   4.412   2.270   1.082
  222SOD    SOD24252   6.036  -0.042   8.272
  223SOD    SOD24253   2.106   7.686   0.121
  224SOD    SOD24254   2.497   2.814   8.104
  225SOD    SOD24255   6.489   1.792   8.131
  226SOD    SOD24256   0.548   6.866   6.966
  227SOD    SOD24257   0.818   2.753   0.401
  228SOD    SOD24258   3.409   1.078   1.496
  229SOD    SOD24259   6.598   7.324   7.255
  230SOD    SOD24260   3.054   2.701   7.084
  231SOD    SOD24261   3.401   1.720   0.296
  232SOD    SOD24262   2.728   6.966   7.582
  233SOD    SOD24263   2.438   0.561   1.431
  234SOD    SOD24264   6.462   2.559   1.555
  235SOD    SOD24265   2.789   4.741   7.792
  236SOD    SOD24266   0.324   5.938   0.767
  237SOD    SOD24267   1.849   5.640   8.509
  238SOD    SOD24268   2.906   4.330   1.200
  239SOD    SOD24269   6.127   6.367   0.848
  240SOD    SOD24270   7.674   4.534   7.517
  241SOD    SOD24271   4.336   1.203   7.050
  242SOD    SOD24272   0.277   3.702   0.825
  243SOD    SOD24273   5.686   7.696   0.408
  244SOD    SOD24274   5.094   3.551   1.060
  245SOD    SOD24275   0.357   3.253   1.226
  246SOD    SOD24276   3.689   1.575   1.244
  247SOD    SOD24277   4.695   0.010   1.187
  248SOD    SOD24278   6.487   3.762   6.428
  249SOD    SOD24279   0.788   5.616   0.477
  250SOD    SOD24280   6.660   3.218   7.562
  251SOD    SOD24281   4.614   4.510   6.828
  252SOD    SOD24282   3.123   2.083   6.857
  253SOD    SOD24283   1.990   1.565   1.451
  254SOD    SOD24284   2.326   7.057   1.819
  255SOD    SOD24285   1.771   7.312   1.818
  256SOD    SOD24286   5.800   3.960   1.407
  257SOD    SOD24287   3.397   0.218   8.281
  258SOD    SOD24288   2.630   3.418   7.767
  259SOD    SOD24289   4.238   0.041   7.017
  260SOD    SOD24290   1.561   1.531   0.779
  261SOD    SOD24291   0.440   3.160   0.628
  262SOD    SOD24292   1.212   2.107   0.215
  263SOD    SOD24293   4.358   7.175   7.089
  264SOD    SOD24294   6.828   0.934   7.831
  265SOD    SOD24295   0.868   3.520   0.473
  266SOD    SOD24296   4.776   0.097   8.200
  267SOD    SOD24297   3.768   2.579   8.193
  268SOD    SOD24298   3.207   3.008   6.891
  269SOD    SOD24299   4.955   7.565   0.330
  270CLA    CLA24300   6.331   2.211   0.612
  271CLA    CLA24301   4.690   6.845   2.027
  272CLA    CLA24302   5.735   3.020   0.597
  273CLA    CLA24303   5.638   1.192   6.457
  274CLA    CLA24304   0.338   1.884   0.410
  275CLA    CLA24305   1.577   4.579   0.361
  276CLA    CLA24306   0.837   5.267   1.625
  277CLA    CLA24307   4.796   5.158   7.830
  278CLA    CLA24308   0.542   2.209   7.179
  279CLA    CLA24309   3.063   6.806   7.881
  280CLA    CLA24310   4.329   0.306   7.985
  281CLA    CLA24311   7.619   1.557   6.926
  282CLA    CLA24312   5.154   5.867   8.440
  283CLA    CLA24313   5.314   6.529   7.730
  284CLA    CLA24314   0.214   7.213   1.549
  285CLA    CLA24315   5.697   0.276   1.568
  286CLA    CLA24316   6.975   5.832   6.895
  287CLA    CLA24317   5.712   6.533   8.179
  288CLA    CLA24318   4.035   2.369   0.811
  289TIP3   OH224319   4.481   3.901   6.334
  289TIP3    H124320   4.565   3.897   6.287
  289TIP3    H224321   4.417   3.866   6.269
  290TIP3   OH224322   4.107   3.762   6.320
  290TIP3    H124323   4.013   3.748   6.334
  290TIP3    H224324   4.111   3.799   6.231
  291TIP3   OH224325   4.249   4.110   6.332
  291TIP3    H124326   4.268   4.020   6.365
  291TIP3    H224327   4.265   4.166   6.408
  292TIP3   OH224328   2.622   3.546   6.225
  292TIP3    H124329   2.623   3.477   6.293
  292TIP3    H224330   2.703   3.522   6.175
  293TIP3   OH224331   3.145   3.278   6.227
  293TIP3    H124332   3.088   3.271   6.303
  293TIP3    H224333   3.224   3.325   6.259
  294TIP3   OH224334   3.098   5.060   6.298
  294TIP3    H124335   3.171   5.045   6.359
  294TIP3    H224336   3.063   4.972   6.281
  295TIP3   OH224337   3.536   2.060   6.344
  295TIP3    H124338   3.509   2.039   6.254
  295TIP3    H224339   3.572   2.149   6.335
  296TIP3   OH224340   3.630   1.738   6.295
  296TIP3    H124341   3.690   1.805   6.258
  296TIP3    H224342   3.543   1.768   6.263
  297TIP3   OH224343   3.179   1.886   6.189
  297TIP3    H124344   3.115   1.960   6.202
  297TIP3    H224345   3.191   1.858   6.282
  298TIP3   OH224346   3.477   6.296   6.411
  298TIP3    H124347   3.506   6.381   6.376
  298TIP3    H224348   3.412   6.268   6.343
  299TIP3   OH224349   5.243   1.642   6.458
  299TIP3    H124350   5.274   1.599   6.539
  299TIP3    H224351   5.171   1.583   6.432
  300TIP3   OH224352   3.876   0.877   6.235
  300TIP3    H124353   3.914   0.797   6.195
  300TIP3    H224354   3.852   0.845   6.323
  301TIP3   OH224355   3.907   1.135   6.355
  301TIP3    H124356   3.869   1.170   6.273
  301TIP3    H224357   3.953   1.057   6.321
  302TIP3   OH224358   6.860   3.426   6.459
  302TIP3    H124359   6.846   3.355   6.393
  302TIP3    H224360   6.953   3.447   6.440
  303TIP3   OH224361   6.515   3.608   6.264
  303TIP3    H124362   6.540   3.658   6.185
  303TIP3    H224363   6.556   3.524   6.235
  304TIP3   OH224364   6.917   2.474   6.238
  304TIP3    H124365   6.976   2.542   6.199
  304TIP3    H224366   6.962   2.392   6.206
  305TIP3   OH224367   7.242   2.872   6.163
  305TIP3    H124368   7.223   2.967   6.159
  305TIP3    H224369   7.329   2.868   6.204
  306TIP3   OH224370   1.391   1.125   6.183
  306TIP3    H124371   1.317   1.100   6.125
  306TIP3    H224372   1.467   1.075   6.147
  307TIP3   OH224373   1.446   0.727   6.379
  307TIP3    H124374   1.473   0.807   6.335
  307TIP3    H224375   1.383   0.688   6.316
  308TIP3   OH224376   1.227   0.601   6.211
  308TIP3    H124377   1.203   0.507   6.195
  308TIP3    H224378   1.166   0.644   6.149
  309TIP3   OH224379   4.355   4.455   2.265
  309TIP3    H124380   4.269   4.474   2.305
  309TIP3    H224381   4.340   4.472   2.171
  310TIP3   OH224382   3.196   4.833   2.107
  310TIP3    H124383   3.280   4.857   2.064
  310TIP3    H224384   3.137   4.820   2.031
  311TIP3   OH224385   4.244   2.822   2.183
  311TIP3    H124386   4.257   2.733   2.149
  311TIP3    H224387   4.185   2.800   2.259
  312TIP3   OH224388   3.753   2.794   2.319
  312TIP3    H124389   3.753   2.730   2.246
  312TIP3    H224390   3.665   2.781   2.356
  313TIP3   OH224391   4.098   2.460   2.304
  313TIP3    H124392   4.088   2.517   2.382
  313TIP3    H224393   4.060   2.376   2.332
  314TIP3   OH224394   1.944   4.300   2.210
  314TIP3    H124395   1.892   4.372   2.248
  314TIP3    H224396   1.956   4.235   2.281
  315TIP3   OH224397   1.294   3.395   2.182
  315TIP3    H124398   1.380   3.420   2.146
  315TIP3    H224399   1.298   3.299   2.182
  316TIP3   OH224400   4.770   6.583   2.248
  316TIP3    H124401   4.756   6.489   2.267
  316TIP3    H224402   4.861   6.582   2.213
  317TIP3   OH224403   4.312   6.506   2.330
  317TIP3    H124404   4.332   6.576   2.266
  317TIP3    H224405   4.401   6.470   2.345
  318TIP3   OH224406   4.355   6.209   2.267
  318TIP3    H124407   4.389   6.172   2.185
  318TIP3    H224408   4.424   6.272   2.294
  319TIP3   OH224409   4.832   6.281   2.266
  319TIP3    H124410   4.833   6.256   2.173
  319TIP3    H224411   4.922   6.250   2.289
  320TIP3   OH224412   5.967   2.427   2.354
  320TIP3    H124413   6.057   2.412   2.386
  320TIP3    H224414   5.916   2.350   2.383
  321TIP3   OH224415   6.342   2.570   2.059
  321TIP3    H124416   6.352   2.479   2.093
  321TIP3    H224417   6.288   2.556   1.980
  322TIP3   OH224418   6.452   2.285   2.281
  322TIP3    H124419   6.519   2.268   2.350
  322TIP3    H224420   6.422   2.195   2.262
  323TIP3   OH224421   1.251   4.753   2.265
  323TIP3    H124422   1.156   4.744   2.281
  323TIP3    H224423   1.272   4.837   2.306
  324TIP3   OH224424   0.829   5.165   2.319
  324TIP3    H124425   0.822   5.262   2.330
  324TIP3    H224426   0.837   5.152   2.224
  325TIP3   OH224427   1.149   5.184   2.109
  325TIP3    H124428   1.063   5.169   2.150
  325TIP3    H224429   1.210   5.134   2.165
  326TIP3   OH224430   6.792   5.389   2.310
  326TIP3    H124431   6.883   5.373   2.278
  326TIP3    H224432   6.780   5.476   2.270
  327TIP3   OH224433   6.475   5.555   2.122
  327TIP3    H124434   6.467   5.621   2.194
  327TIP3    H224435   6.506   5.612   2.050
  328TIP3   OH224436   6.347   5.303   2.153
  328TIP3    H124437   6.378   5.390   2.119
  328TIP3    H224438   6.381   5.309   2.244
  329TIP3   OH224439   1.133   5.572   2.285
  329TIP3    H124440   1.139   5.534   2.197
  329TIP3    H224441   1.221   5.606   2.304
  330TIP3   OH224442   7.407   4.640   2.308
  330TIP3    H124443   7.312   4.647   2.289
  330TIP3    H224444   7.402   4.628   2.402
  331TIP3   OH224445   6.946   4.721   2.201
  331TIP3    H124446   6.884   4.732   2.128
  331TIP3    H224447   7.007   4.794   2.187
  332TIP3   OH224448   1.135   1.607   2.171
  332TIP3    H124449   1.051   1.585   2.130
  332TIP3    H224450   1.183   1.644   2.096
  333TIP3   OH224451   1.525   1.544   2.268
  333TIP3    H124452   1.610   1.540   2.314
  333TIP3    H224453   1.464   1.492   2.323
  334TIP3   OH224454   1.320   1.757   2.302
  334TIP3    H124455   1.247   1.696   2.284
  334TIP3    H224456   1.398   1.700   2.292
  335TIP3   OH224457   7.132   6.999   2.152
  335TIP3    H124458   7.215   6.999   2.203
  335TIP3    H224459   7.079   6.945   2.212
  336TIP3   OH224460   7.210   6.510   2.307
  336TIP3    H124461   7.303   6.520   2.333
  336TIP3    H224462   7.201   6.411   2.307
  337TIP3   OH224463   7.325   7.215   2.364
  337TIP3    H124464   7.400   7.153   2.349
  337TIP3    H224465   7.370   7.295   2.391
  338TIP3   OH224466   7.611   6.155   2.068
  338TIP3    H124467   7.649   6.241   2.089
  338TIP3    H224468   7.525   6.175   2.111
  339TIP3   OH224469   0.129   6.501   2.384
  339TIP3    H124470   0.056   6.437   2.388
  339TIP3    H224471   0.199   6.437   2.374
  340TIP3   OH224472   0.176   6.144   2.087
  340TIP3    H124473   0.191   6.049   2.075
  340TIP3    H224474   0.091   6.155   2.043
  341TIP3   OH224475   1.218   1.009   6.935
  341TIP3    H124476   1.211   1.106   6.939
  341TIP3    H224477   1.127   0.984   6.913
  342TIP3   OH224478   1.104   0.876   7.268
  342TIP3    H124479   1.103   0.847   7.363
  342TIP3    H224480   1.029   0.826   7.229
  343TIP3   OH224481   0.313   0.894   7.439
  343TIP3    H124482   0.294   0.809   7.483
  343TIP3    H224483   0.367   0.936   7.509
  344TIP3   OH224484   1.400   1.214   7.143
  344TIP3    H124485   1.385   1.139   7.203
  344TIP3    H224486   1.425   1.283   7.207
  345TIP3   OH224487   0.360   1.341   7.261
  345TIP3    H124488   0.340   1.253   7.227
  345TIP3    H224489   0.455   1.323   7.276
  346TIP3   OH224490   0.082   0.748   6.850
  346TIP3    H124491   0.005   0.805   6.862
  346TIP3    H224492   0.034   0.664   6.831
  347TIP3   OH224493   0.214   0.921   7.060
  347TIP3    H124494   0.223   0.826   7.080
  347TIP3    H224495   0.239   0.922   6.966
  348TIP3   OH224496   1.157   1.745   7.098
  348TIP3    H124497   1.223   1.689   7.052
  348TIP3    H224498   1.137   1.688   7.174
  349TIP3   OH224499   0.911   1.202   7.324
  349TIP3    H124500   0.946   1.154   7.248
  349TIP3    H224501   0.990   1.203   7.382
  350TIP3   OH224502   1.764   0.312   7.373
  350TIP3    H124503   1.766   0.384   7.439
  350TIP3    H224504   1.835   0.342   7.313
  351TIP3   OH224505   1.270   0.626   7.386
  351TIP3    H124506   1.274   0.532   7.410
  351TIP3    H224507   1.242   0.621   7.293
  352TIP3   OH224508   0.530   0.416   7.040
  352TIP3    H124509   0.510   0.495   6.987
  352TIP3    H224510   0.522   0.346   6.973
  353TIP3   OH224511   1.304   0.447   6.908
  353TIP3    H124512   1.358   0.433   6.990
  353TIP3    H224513   1.351   0.522   6.871
  354TIP3   OH224514   0.179   0.635   7.144
  354TIP3    H124515   0.253   0.586   7.185
  354TIP3    H224516   0.174   0.594   7.056
  355TIP3   OH224517   0.664   0.827   7.086
  355TIP3    H124518   0.746   0.808   7.132
  355TIP3    H224519   0.669   0.758   7.018
  356TIP3   OH224520   1.806   0.484   7.600
  356TIP3    H124521   1.757   0.562   7.566
  356TIP3    H224522   1.793   0.495   7.696
  357TIP3   OH224523   0.440   0.316   7.486
  357TIP3    H124524   0.409   0.385   7.425
  357TIP3    H224525   0.362   0.307   7.544
  358TIP3   OH224526   1.150   1.283   6.837
  358TIP3    H124527   1.120   1.282   6.744
  358TIP3    H224528   1.115   1.370   6.862
  359TIP3   OH224529   0.717   1.098   7.495
  359TIP3    H124530   0.649   1.170   7.502
  359TIP3    H224531   0.776   1.139   7.428
  360TIP3   OH224532   1.477   0.442   7.120
  360TIP3    H124533   1.501   0.355   7.154
  360TIP3    H224534   1.522   0.495   7.190
  361TIP3   OH224535   0.383   0.503   7.280
  361TIP3    H124536   0.442   0.571   7.320
  361TIP3    H224537   0.439   0.465   7.209
  362TIP3   OH224538   0.536   1.288   7.550
  362TIP3    H124539   0.526   1.381   7.524
  362TIP3    H224540   0.450   1.276   7.596
  363TIP3   OH224541   0.204   1.252   6.693
  363TIP3    H124542   0.107   1.250   6.681
  363TIP3    H224543   0.212   1.321   6.763
  364TIP3   OH224544   1.481   1.408   7.325
  364TIP3    H124545   1.388   1.434   7.340
  364TIP3    H224546   1.515   1.492   7.289
  365TIP3   OH224547   1.544   0.191   7.499
  365TIP3    H124548   1.475   0.203   7.431
  365TIP3    H224549   1.623   0.203   7.443
  366TIP3   OH224550   0.813   0.118   7.162
  366TIP3    H124551   0.831   0.032   7.206
  366TIP3    H224552   0.746   0.156   7.223
  367TIP3   OH224553   1.341   1.579   7.001
  367TIP3    H124554   1.363   1.507   6.937
  367TIP3    H224555   1.412   1.644   6.979
  368TIP3   OH224556   1.442   1.375   6.846
  368TIP3    H124557   1.437   1.305   6.777
  368TIP3    H224558   1.418   1.321   6.924
  369TIP3   OH224559   1.596   1.242   7.710
  369TIP3    H124560   1.609   1.168   7.648
  369TIP3    H224561   1.616   1.317   7.651
  370TIP3   OH224562   1.086   0.955   6.675
  370TIP3    H124563   1.081   1.050   6.663
  370TIP3    H224564   1.178   0.936   6.652
  371TIP3   OH224565   1.796   0.897   7.502
  371TIP3    H124566   1.726   0.966   7.491
  371TIP3    H224567   1.859   0.930   7.434
  372TIP3   OH224568   1.439   0.933   6.773
  372TIP3    H124569   1.363   0.955   6.831
  372TIP3    H224570   1.501   0.897   6.839
  373TIP3   OH224571   1.404   0.766   7.711
  373TIP3    H124572   1.411   0.861   7.729
  373TIP3    H224573   1.332   0.765   7.646
  374TIP3   OH224574   0.547   1.005   6.936
  374TIP3    H124575   0.537   0.945   6.860
  374TIP3    H224576   0.572   0.942   7.007
  375TIP3   OH224577   0.681   1.324   7.224
  375TIP3    H124578   0.683   1.317   7.126
  375TIP3    H224579   0.767   1.286   7.251
  376TIP3   OH224580   0.610   0.891   7.350
  376TIP3    H124581   0.630   0.917   7.257
  376TIP3    H224582   0.621   0.976   7.398
  377TIP3   OH224583   1.235   1.447   7.407
  377TIP3    H124584   1.236   1.505   7.485
  377TIP3    H224585   1.192   1.367   7.444
  378TIP3   OH224586   0.677   1.301   7.782
  378TIP3    H124587   0.608   1.350   7.832
  378TIP3    H224588   0.630   1.283   7.697
  379TIP3   OH224589   0.403   0.951   7.687
  379TIP3    H124590   0.399   1.025   7.751
  379TIP3    H224591   0.314   0.913   7.698
  380TIP3   OH224592   1.053   1.550   6.857
  380TIP3    H124593   1.070   1.551   6.953
  380TIP3    H224594   0.993   1.625   6.849
  381TIP3   OH224595   0.518   1.503   7.893
  381TIP3    H124596   0.506   1.517   7.797
  381TIP3    H224597   0.423   1.494   7.919
  382TIP3   OH224598   0.122   1.128   7.655
  382TIP3    H124599   0.027   1.147   7.640
  382TIP3    H224600   0.126   1.031   7.650
  383TIP3   OH224601   0.102   1.478   7.254
  383TIP3    H124602   0.174   1.411   7.245
  383TIP3    H224603   0.108   1.492   7.351
  384TIP3   OH224604   1.850   1.500   7.866
  384TIP3    H124605   1.844   1.403   7.875
  384TIP3    H224606   1.763   1.526   7.905
  385TIP3   OH224607   0.918   1.428   7.755
  385TIP3    H124608   0.926   1.517   7.792
  385TIP3    H224609   0.825   1.402   7.770
  386TIP3   OH224610   0.976   1.830   6.679
  386TIP3    H124611   0.887   1.834   6.638
  386TIP3    H224612   0.979   1.917   6.725
  387TIP3   OH224613   0.367   1.694   6.926
  387TIP3    H124614   0.377   1.670   7.020
  387TIP3    H224615   0.274   1.673   6.909
  388TIP3   OH224616   1.275   1.725   6.724
  388TIP3    H124617   1.178   1.728   6.715
  388TIP3    H224618   1.285   1.644   6.776
  389TIP3   OH224619   1.566   0.636   7.899
  389TIP3    H124620   1.518   0.679   7.824
  389TIP3    H224621   1.566   0.543   7.869
  390TIP3   OH224622   0.316   1.290   7.701
  390TIP3    H124623   0.327   1.241   7.785
  390TIP3    H224624   0.239   1.240   7.664
  391TIP3   OH224625   0.589   0.219   7.280
  391TIP3    H124626   0.511   0.240   7.225
  391TIP3    H224627   0.554   0.248   7.367
  392TIP3   OH224628   0.983   0.165   7.698
  392TIP3    H124629   1.040   0.086   7.691
  392TIP3    H224630   0.906   0.136   7.647
  393TIP3   OH224631   1.314   0.511   7.730
  393TIP3    H124632   1.270   0.480   7.814
  393TIP3    H224633   1.350   0.598   7.756
  394TIP3   OH224634   0.959   0.379   6.394
  394TIP3    H124635   0.922   0.360   6.482
  394TIP3    H224636   0.912   0.318   6.337
  395TIP3   OH224637   0.574   0.636   7.417
  395TIP3    H124638   0.497   0.642   7.476
  395TIP3    H224639   0.587   0.732   7.397
  396TIP3   OH224640   1.135   0.707   6.808
  396TIP3    H124641   1.101   0.790   6.768
  396TIP3    H224642   1.196   0.678   6.737
  397TIP3   OH224643   1.022   0.740   7.921
  397TIP3    H124644   0.981   0.654   7.944
  397TIP3    H224645   1.105   0.736   7.972
  398TIP3   OH224646   1.234   0.665   7.091
  398TIP3    H124647   1.205   0.727   7.021
  398TIP3    H224648   1.241   0.581   7.043
  399TIP3   OH224649   0.332   0.639   7.559
  399TIP3    H124650   0.386   0.667   7.634
  399TIP3    H224651   0.285   0.562   7.598
  400TIP3   OH224652   0.106   0.411   6.989
  400TIP3    H124653   0.114   0.380   7.081
  400TIP3    H224654   0.062   0.334   6.947
  401TIP3   OH224655   1.125   0.791   7.523
  401TIP3    H124656   1.187   0.730   7.479
  401TIP3    H224657   1.077   0.728   7.583
  402TIP3   OH224658   0.856   0.389   7.021
  402TIP3    H124659   0.762   0.366   7.032
  402TIP3    H224660   0.895   0.353   7.103
  403TIP3   OH224661   0.724   0.662   6.691
  403TIP3    H124662   0.792   0.592   6.703
  403TIP3    H224663   0.665   0.628   6.622
  404TIP3   OH224664   1.296   0.310   7.336
  404TIP3    H124665   1.238   0.304   7.415
  404TIP3    H224666   1.239   0.274   7.267
  405TIP3   OH224667   1.572   1.878   8.008
  405TIP3    H124668   1.608   1.892   7.919
  405TIP3    H224669   1.644   1.919   8.059
  406TIP3   OH224670   0.384   1.129   7.898
  406TIP3    H124671   0.440   1.157   7.973
  406TIP3    H224672   0.300   1.112   7.946
  407TIP3   OH224673   0.912   0.699   7.172
  407TIP3    H124674   0.996   0.655   7.150
  407TIP3    H224675   0.868   0.632   7.227
  408TIP3   OH224676   0.807   0.508   7.426
  408TIP3    H124677   0.730   0.568   7.437
  408TIP3    H224678   0.876   0.557   7.473
  409TIP3   OH224679   1.617   1.090   7.495
  409TIP3    H124680   1.672   1.152   7.439
  409TIP3    H224681   1.540   1.075   7.436
  410TIP3   OH224682   1.219   0.408   6.468
  410TIP3    H124683   1.128   0.418   6.432
  410TIP3    H224684   1.256   0.497   6.459
  411TIP3   OH224685   1.001   1.169   7.760
  411TIP3    H124686   0.969   1.146   7.848
  411TIP3    H224687   0.975   1.263   7.755
  412TIP3   OH224688   1.318   0.655   6.611
  412TIP3    H124689   1.401   0.636   6.659
  412TIP3    H224690   1.356   0.678   6.523
  413TIP3   OH224691   0.466   1.093   7.198
  413TIP3    H124692   0.477   1.084   7.102
  413TIP3    H224693   0.436   1.006   7.226
  414TIP3   OH224694   1.044   1.284   6.565
  414TIP3    H124695   1.024   1.380   6.553
  414TIP3    H224696   1.109   1.272   6.493
  415TIP3   OH224697   0.142   0.859   7.698
  415TIP3    H124698   0.138   0.830   7.790
  415TIP3    H224699   0.047   0.852   7.674
  416TIP3   OH224700   0.772   0.866   7.905
  416TIP3    H124701   0.737   0.807   7.837
  416TIP3    H224702   0.864   0.832   7.913
  417TIP3   OH224703   1.267   1.402   7.763
  417TIP3    H124704   1.185   1.415   7.715
  417TIP3    H224705   1.242   1.439   7.850
  418TIP3   OH224706   1.820   0.605   6.565
  418TIP3    H124707   1.748   0.594   6.502
  418TIP3    H224708   1.834   0.702   6.567
  419TIP3   OH224709   1.832   1.228   7.845
  419TIP3    H124710   1.736   1.232   7.820
  419TIP3    H224711   1.876   1.214   7.757
  420TIP3   OH224712   1.657   1.481   6.585
  420TIP3    H124713   1.622   1.395   6.611
  420TIP3    H224714   1.683   1.471   6.492
  421TIP3   OH224715   1.369   0.999   7.317
  421TIP3    H124716   1.280   0.970   7.290
  421TIP3    H224717   1.422   0.931   7.271
  422TIP3   OH224718   0.622   1.414   6.970
  422TIP3    H124719   0.672   1.488   6.932
  422TIP3    H224720   0.531   1.447   6.959
  423TIP3   OH224721   0.225   0.934   6.500
  423TIP3    H124722   0.275   1.019   6.502
  423TIP3    H224723   0.149   0.953   6.444
  424TIP3   OH224724   0.747   1.194   6.904
  424TIP3    H124725   0.683   1.267   6.914
  424TIP3    H224726   0.691   1.115   6.917
  425TIP3   OH224727   0.802   1.609   7.565
  425TIP3    H124728   0.873   1.662   7.523
  425TIP3    H224729   0.851   1.565   7.636
  426TIP3   OH224730   0.620   1.675   6.838
  426TIP3    H124731   0.522   1.685   6.847
  426TIP3    H224732   0.647   1.766   6.863
  427TIP3   OH224733   1.126   1.198   7.496
  427TIP3    H124734   1.091   1.175   7.585
  427TIP3    H224735   1.184   1.123   7.477
  428TIP3   OH224736   1.317   1.311   6.428
  428TIP3    H124737   1.370   1.254   6.486
  428TIP3    H224738   1.354   1.289   6.341
  429TIP3   OH224739   1.449   1.679   7.738
  429TIP3    H124740   1.365   1.634   7.716
  429TIP3    H224741   1.463   1.734   7.657
  430TIP3   OH224742   1.837   1.767   6.471
  430TIP3    H124743   1.860   1.786   6.379
  430TIP3    H224744   1.776   1.841   6.492
  431TIP3   OH224745   0.254   0.424   7.707
  431TIP3    H124746   0.208   0.463   7.782
  431TIP3    H224747   0.249   0.328   7.726
  432TIP3   OH224748   1.478   1.164   6.628
  432TIP3    H124749   1.457   1.079   6.674
  432TIP3    H224750   1.575   1.160   6.634
  433TIP3   OH224751   0.199   1.539   7.501
  433TIP3    H124752   0.289   1.508   7.521
  433TIP3    H224753   0.185   1.608   7.567
  434TIP3   OH224754   0.677   1.366   6.488
  434TIP3    H124755   0.770   1.352   6.514
  434TIP3    H224756   0.655   1.449   6.536
  435TIP3   OH224757   0.376   1.146   6.507
  435TIP3    H124758   0.341   1.173   6.594
  435TIP3    H224759   0.387   1.235   6.468
  436TIP3   OH224760   1.157   0.334   7.570
  436TIP3    H124761   1.201   0.387   7.639
  436TIP3    H224762   1.101   0.274   7.624
  437TIP3   OH224763   1.207   0.289   6.713
  437TIP3    H124764   1.213   0.343   6.630
  437TIP3    H224765   1.249   0.350   6.779
  438TIP3   OH224766   0.961   1.547   6.537
  438TIP3    H124767   0.868   1.577   6.535
  438TIP3    H224768   0.993   1.592   6.618
  439TIP3   OH224769   0.936   0.507   6.767
  439TIP3    H124770   1.006   0.573   6.781
  439TIP3    H224771   0.917   0.478   6.858
  440TIP3   OH224772   1.011   0.605   7.692
  440TIP3    H124773   1.013   0.659   7.774
  440TIP3    H224774   1.016   0.514   7.725
  441TIP3   OH224775   0.998   0.187   6.840
  441TIP3    H124776   0.992   0.256   6.909
  441TIP3    H224777   1.076   0.220   6.788
  442TIP3   OH224778   0.701   1.642   6.573
  442TIP3    H124779   0.713   1.733   6.542
  442TIP3    H224780   0.667   1.659   6.664
  443TIP3   OH224781   0.628   0.297   6.474
  443TIP3    H124782   0.564   0.342   6.530
  443TIP3    H224783   0.705   0.289   6.535
  444TIP3   OH224784   1.570   0.393   7.751
  444TIP3    H124785   1.473   0.408   7.749
  444TIP3    H224786   1.591   0.370   7.659
  445TIP3   OH224787   1.481   0.761   7.178
  445TIP3    H124788   1.393   0.720   7.167
  445TIP3    H224789   1.531   0.696   7.231
  446TIP3   OH224790   0.422   1.391   6.411
  446TIP3    H124791   0.454   1.455   6.477
  446TIP3    H224792   0.506   1.353   6.381
  447TIP3   OH224793   1.540   1.692   7.317
  447TIP3    H124794   1.548   1.760   7.247
  447TIP3    H224795   1.634   1.683   7.344
  448TIP3   OH224796   0.295   0.172   7.183
  448TIP3    H124797   0.282   0.163   7.086
  448TIP3    H224798   0.291   0.077   7.208
  449TIP3   OH224799   0.202   1.478   6.840
  449TIP3    H124800   0.110   1.497   6.868
  449TIP3    H224801   0.215   1.549   6.774
  450TIP3   OH224802   0.176   1.785   7.976
  450TIP3    H124803   0.226   1.795   8.060
  450TIP3    H224804   0.203   1.695   7.949
  451TIP3   OH224805   0.612   1.617   8.123
  451TIP3    H124806   0.699   1.574   8.127
  451TIP3    H224807   0.579   1.586   8.035
  452TIP3   OH224808   1.203   1.510   8.003
  452TIP3    H124809   1.181   1.420   8.038
  452TIP3    H224810   1.295   1.518   8.037
  453TIP3   OH224811   0.171   1.141   8.053
  453TIP3    H124812   0.171   1.045   8.069
  453TIP3    H224813   0.073   1.151   8.043
  454TIP3   OH224814   0.776   1.123   7.964
  454TIP3    H124815   0.755   1.186   7.891
  454TIP3    H224816   0.772   1.035   7.919
  455TIP3   OH224817   1.337   1.125   7.752
  455TIP3    H124818   1.420   1.177   7.755
  455TIP3    H224819   1.276   1.200   7.768
  456TIP3   OH224820   0.188   0.857   8.023
  456TIP3    H124821   0.269   0.806   8.016
  456TIP3    H224822   0.191   0.893   8.115
  457TIP3   OH224823   0.578   0.754   7.665
  457TIP3    H124824   0.533   0.841   7.665
  457TIP3    H224825   0.660   0.778   7.616
  458TIP3   OH224826   1.122   1.026   8.075
  458TIP3    H124827   1.174   0.977   8.010
  458TIP3    H224828   1.087   0.958   8.136
  459TIP3   OH224829   0.654   0.555   7.812
  459TIP3    H124830   0.680   0.491   7.743
  459TIP3    H224831   0.617   0.628   7.758
  460TIP3   OH224832   0.689   0.351   7.607
  460TIP3    H124833   0.745   0.391   7.536
  460TIP3    H224834   0.600   0.355   7.567
  461TIP3   OH224835   0.821   0.864   7.583
  461TIP3    H124836   0.912   0.893   7.591
  461TIP3    H224837   0.777   0.949   7.557
  462TIP3   OH224838   1.235   0.661   8.115
  462TIP3    H124839   1.268   0.569   8.120
  462TIP3    H224840   1.319   0.709   8.116
  463TIP3   OH224841   1.411   0.962   7.960
  463TIP3    H124842   1.373   1.009   7.883
  463TIP3    H224843   1.505   0.959   7.938
  464TIP3   OH224844   0.495   0.604   8.056
  464TIP3    H124845   0.436   0.529   8.036
  464TIP3    H224846   0.545   0.612   7.973
  465TIP3   OH224847   0.729   0.084   7.597
  465TIP3    H124848   0.727   0.182   7.609
  465TIP3    H224849   0.633   0.069   7.589
  466TIP3   OH224850   0.886   0.517   7.998
  466TIP3    H124851   0.864   0.481   8.086
  466TIP3    H224852   0.805   0.495   7.948
  467TIP3   OH224853   1.165   0.414   7.927
  467TIP3    H124854   1.073   0.399   7.955
  467TIP3    H224855   1.213   0.363   7.995
  468TIP3   OH224856   1.332   0.328   8.120
  468TIP3    H124857   1.317   0.231   8.123
  468TIP3    H224858   1.298   0.351   8.210
  469TIP3   OH224859   0.291   0.409   8.066
  469TIP3    H124860   0.286   0.332   8.006
  469TIP3    H224861   0.278   0.362   8.151
  470TIP3   OH224862   0.736   0.093   7.885
  470TIP3    H124863   0.755   0.001   7.913
  470TIP3    H224864   0.801   0.105   7.814
  471TIP3   OH224865   0.766   0.125   8.158
  471TIP3    H124866   0.740   0.108   8.065
  471TIP3    H224867   0.735   0.217   8.165
  472TIP3   OH224868   0.764   1.892   6.457
  472TIP3    H124869   0.809   1.973   6.431
  472TIP3    H224870   0.671   1.913   6.432
  473TIP3   OH224871   0.142   1.387   6.346
  473TIP3    H124872   0.229   1.424   6.369
  473TIP3    H224873   0.111   1.447   6.277
  474TIP3   OH224874   0.046   1.949   6.887
  474TIP3    H124875  -0.049   1.928   6.871
  474TIP3    H224876   0.072   1.878   6.948
  475TIP3   OH224877   0.119   1.728   7.076
  475TIP3    H124878   0.088   1.641   7.043
  475TIP3    H224879   0.160   1.704   7.161
  476TIP3   OH224880   1.820   1.726   7.340
  476TIP3    H124881   1.851   1.742   7.431
  476TIP3    H224882   1.847   1.809   7.298
  477TIP3   OH224883   1.768   1.699   7.641
  477TIP3    H124884   1.735   1.620   7.591
  477TIP3    H224885   1.793   1.657   7.725
  478TIP3   OH224886   1.654   1.276   8.131
  478TIP3    H124887   1.569   1.283   8.179
  478TIP3    H224888   1.697   1.359   8.161
  479TIP3   OH224889   1.747   1.113   6.660
  479TIP3    H124890   1.828   1.166   6.674
  479TIP3    H224891   1.756   1.048   6.733
  480TIP3   OH224892   1.808   0.940   6.852
  480TIP3    H124893   1.735   0.889   6.895
  480TIP3    H224894   1.871   0.950   6.926
  481TIP3   OH224895   1.783   1.200   7.331
  481TIP3    H124896   1.842   1.128   7.300
  481TIP3    H224897   1.810   1.279   7.280
  482TIP3   OH224898   1.634   1.476   7.566
  482TIP3    H124899   1.561   1.509   7.620
  482TIP3    H224900   1.589   1.448   7.484
  483TIP3   OH224901   1.829   0.926   6.464
  483TIP3    H124902   1.739   0.894   6.451
  483TIP3    H224903   1.814   1.001   6.526
  484TIP3   OH224904   1.602   0.792   6.944
  484TIP3    H124905   1.545   0.724   6.907
  484TIP3    H224906   1.578   0.784   7.038
  485TIP3   OH224907   0.152   1.051   7.295
  485TIP3    H124908   0.184   1.010   7.213
  485TIP3    H224909   0.217   1.012   7.359
  486TIP3   OH224910   1.695   0.963   7.888
  486TIP3    H124911   1.734   0.873   7.902
  486TIP3    H224912   1.767   1.010   7.844
  487TIP3   OH224913   1.805   0.724   7.967
  487TIP3    H124914   1.726   0.670   7.948
  487TIP3    H224915   1.877   0.662   7.944
  488TIP3   OH224916   1.626   0.383   6.290
  488TIP3    H124917   1.671   0.325   6.225
  488TIP3    H224918   1.535   0.385   6.257
  489TIP3   OH224919   1.546   0.552   6.753
  489TIP3    H124920   1.558   0.457   6.773
  489TIP3    H224921   1.632   0.568   6.712
  490TIP3   OH224922   1.644   0.574   7.298
  490TIP3    H124923   1.739   0.605   7.299
  490TIP3    H224924   1.626   0.576   7.394
  491TIP3   OH224925   1.629   0.686   7.543
  491TIP3    H124926   1.538   0.719   7.549
  491TIP3    H224927   1.681   0.769   7.539
  492TIP3   OH224928   0.079   0.503   7.940
  492TIP3    H124929   0.167   0.500   7.985
  492TIP3    H224930   0.045   0.415   7.961
  493TIP3   OH224931   1.879   0.115   8.083
  493TIP3    H124932   1.945   0.080   8.022
  493TIP3    H224933   1.847   0.194   8.032
  494TIP3   OH224934   1.654   0.286   6.771
  494TIP3    H124935   1.641   0.277   6.867
  494TIP3    H224936   1.574   0.240   6.737
  495TIP3   OH224937   0.109   0.348   7.297
  495TIP3    H124938   0.152   0.264   7.269
  495TIP3    H224939   0.186   0.407   7.297
  496TIP3   OH224940   0.056   0.691   7.371
  496TIP3    H124941   0.106   0.677   7.287
  496TIP3    H224942   0.129   0.696   7.434
  497TIP3   OH224943   1.785   0.322   7.946
  497TIP3    H124944   1.703   0.344   7.997
  497TIP3    H224945   1.748   0.275   7.868
  498TIP3   OH224946   1.518   1.765   6.935
  498TIP3    H124947   1.586   1.739   6.869
  498TIP3    H224948   1.565   1.813   7.004
  499TIP3   OH224949   0.096   0.181   7.546
  499TIP3    H124950   0.030   0.230   7.598
  499TIP3    H224951   0.077   0.217   7.457
  500TIP3   OH224952   0.250   1.451   7.957
  500TIP3    H124953   0.210   1.383   7.900
  500TIP3    H224954   0.234   1.413   8.045
  501TIP3   OH224955   0.537   1.558   7.626
  501TIP3    H124956   0.516   1.652   7.598
  501TIP3    H224957   0.634   1.560   7.613
  502TIP3   OH224958   0.967   1.682   7.864
  502TIP3    H124959   0.971   1.671   7.960
  502TIP3    H224960   1.052   1.728   7.849
  503TIP3   OH224961   1.188   1.851   7.847
  503TIP3    H124962   1.267   1.801   7.821
  503TIP3    H224963   1.220   1.899   7.926
  504TIP3   OH224964   1.729   0.149   7.727
  504TIP3    H124965   1.648   0.189   7.691
  504TIP3    H224966   1.709   0.054   7.714
  505TIP3   OH224967   0.270   1.884   7.621
  505TIP3    H124968   0.175   1.895   7.597
  505TIP3    H224969   0.277   1.948   7.695
  506TIP3   OH224970   0.502   1.798   7.531
  506TIP3    H124971   0.411   1.828   7.552
  506TIP3    H224972   0.515   1.840   7.443
  507TIP3   OH224973   0.965   1.807   7.439
  507TIP3    H124974   0.895   1.863   7.401
  507TIP3    H224975   1.008   1.870   7.500
  508TIP3   OH224976   1.206   1.678   7.576
  508TIP3    H124977   1.137   1.710   7.514
  508TIP3    H224978   1.277   1.741   7.553
  509TIP3   OH224979   1.458   1.844   7.527
  509TIP3    H124980   1.472   1.938   7.500
  509TIP3    H224981   1.487   1.798   7.445
  510TIP3   OH224982   0.263   1.745   7.316
  510TIP3    H124983   0.203   1.681   7.357
  510TIP3    H224984   0.334   1.689   7.279
  511TIP3   OH224985   0.456   1.615   7.186
  511TIP3    H124986   0.458   1.520   7.207
  511TIP3    H224987   0.543   1.643   7.224
  512TIP3   OH224988   0.701   1.644   7.300
  512TIP3    H124989   0.733   1.553   7.287
  512TIP3    H224990   0.709   1.654   7.397
  513TIP3   OH224991   1.056   0.255   7.155
  513TIP3    H124992   0.989   0.185   7.158
  513TIP3    H224993   1.127   0.210   7.107
  514TIP3   OH224994   1.528   0.132   7.183
  514TIP3    H124995   1.594   0.151   7.113
  514TIP3    H224996   1.441   0.148   7.140
  515TIP3   OH224997   1.735   0.211   7.009
  515TIP3    H124998   1.774   0.177   6.927
  515TIP3    H224999   1.789   0.292   7.025
  516TIP3   OH225000   0.242   0.111   6.931
  516TIP3    H125001   0.157   0.071   6.909
  516TIP3    H225002   0.298   0.031   6.929
  517TIP3   OH225003   0.104   0.101   6.462
  517TIP3    H125004   0.176   0.150   6.420
  517TIP3    H225005   0.071   0.170   6.521
  518TIP3   OH225006   0.726   0.152   6.898
  518TIP3    H125007   0.819   0.157   6.869
  518TIP3    H225008   0.737   0.152   6.994
  519TIP3   OH225009   1.275   0.132   7.061
  519TIP3    H125010   1.266   0.137   6.964
  519TIP3    H225011   1.274   0.034   7.076
  520TIP3   OH225012   1.437   0.167   6.683
  520TIP3    H125013   1.347   0.204   6.683
  520TIP3    H225014   1.421   0.071   6.680
  521TIP3   OH225015   0.191   1.679   6.661
  521TIP3    H125016   0.176   1.616   6.590
  521TIP3    H225017   0.187   1.764   6.612
  522TIP3   OH225018   0.843   0.291   6.631
  522TIP3    H125019   0.877   0.231   6.700
  522TIP3    H225020   0.860   0.375   6.678
  523TIP3   OH225021   1.666   1.704   6.729
  523TIP3    H125022   1.673   1.619   6.677
  523TIP3    H225023   1.698   1.766   6.662
  524TIP3   OH225024   0.222   0.174   7.906
  524TIP3    H125025   0.183   0.088   7.880
  524TIP3    H225026   0.308   0.143   7.938
  525TIP3   OH225027   0.477   0.129   8.049
  525TIP3    H125028   0.541   0.149   7.979
  525TIP3    H225029   0.474   0.030   8.043
  526TIP3   OH225030   1.272   0.067   8.092
  526TIP3    H125031   1.256  -0.029   8.104
  526TIP3    H225032   1.336   0.065   8.020
  527TIP3   OH225033   1.624   1.619   7.936
  527TIP3    H125034   1.550   1.618   7.870
  527TIP3    H225035   1.613   1.708   7.974
  528TIP3   OH225036   3.020   1.010   6.952
  528TIP3    H125037   3.036   1.103   6.979
  528TIP3    H225038   3.025   1.017   6.855
  529TIP3   OH225039   2.969   0.910   7.287
  529TIP3    H125040   2.973   0.852   7.366
  529TIP3    H225041   2.896   0.874   7.234
  530TIP3   OH225042   2.187   0.919   7.406
  530TIP3    H125043   2.184   0.833   7.452
  530TIP3    H225044   2.242   0.968   7.469
  531TIP3   OH225045   3.279   1.215   7.146
  531TIP3    H125046   3.275   1.139   7.206
  531TIP3    H225047   3.302   1.287   7.207
  532TIP3   OH225048   2.288   1.365   7.233
  532TIP3    H125049   2.262   1.270   7.230
  532TIP3    H225050   2.384   1.352   7.215
  533TIP3   OH225051   1.956   0.666   6.800
  533TIP3    H125052   1.934   0.753   6.837
  533TIP3    H225053   1.871   0.622   6.812
  534TIP3   OH225054   1.999   0.941   7.039
  534TIP3    H125055   2.039   0.855   7.066
  534TIP3    H225056   2.074   0.992   7.007
  535TIP3   OH225057   3.013   1.737   7.114
  535TIP3    H125058   3.090   1.689   7.074
  535TIP3    H225059   3.004   1.681   7.193
  536TIP3   OH225060   2.765   1.211   7.372
  536TIP3    H125061   2.781   1.151   7.298
  536TIP3    H225062   2.858   1.228   7.398
  537TIP3   OH225063   3.650   0.301   7.370
  537TIP3    H125064   3.660   0.368   7.442
  537TIP3    H225065   3.702   0.343   7.301
  538TIP3   OH225066   3.150   0.614   7.367
  538TIP3    H125067   3.176   0.522   7.390
  538TIP3    H225068   3.094   0.596   7.291
  539TIP3   OH225069   2.438   0.408   7.048
  539TIP3    H125070   2.460   0.491   6.999
  539TIP3    H225071   2.383   0.363   6.979
  540TIP3   OH225072   2.075   0.692   7.135
  540TIP3    H125073   2.149   0.663   7.191
  540TIP3    H225074   2.098   0.644   7.053
  541TIP3   OH225075   2.600   0.837   7.090
  541TIP3    H125076   2.684   0.794   7.114
  541TIP3    H225077   2.561   0.765   7.037
  542TIP3   OH225078   3.678   0.459   7.588
  542TIP3    H125079   3.639   0.543   7.556
  542TIP3    H225080   3.695   0.483   7.681
  543TIP3   OH225081   2.332   0.316   7.466
  543TIP3    H125082   2.299   0.377   7.396
  543TIP3    H225083   2.248   0.303   7.517
  544TIP3   OH225084   3.030   1.273   6.843
  544TIP3    H125085   2.990   1.226   6.770
  544TIP3    H225086   2.977   1.355   6.847
  545TIP3   OH225087   2.541   1.074   7.464
  545TIP3    H125088   2.478   1.143   7.494
  545TIP3    H225089   2.613   1.130   7.429
  546TIP3   OH225090   3.364   0.442   7.071
  546TIP3    H125091   3.344   0.395   7.153
  546TIP3    H225092   3.451   0.482   7.088
  547TIP3   OH225093   2.302   0.509   7.263
  547TIP3    H125094   2.361   0.579   7.300
  547TIP3    H225095   2.348   0.485   7.180
  548TIP3   OH225096   2.411   1.285   7.559
  548TIP3    H125097   2.400   1.364   7.504
  548TIP3    H225098   2.326   1.287   7.610
  549TIP3   OH225099   1.997   1.232   6.689
  549TIP3    H125100   2.018   1.272   6.604
  549TIP3    H225101   2.007   1.308   6.749
  550TIP3   OH225102   3.385   1.416   7.332
  550TIP3    H125103   3.292   1.434   7.358
  550TIP3    H225104   3.403   1.501   7.289
  551TIP3   OH225105   3.438   0.174   7.506
  551TIP3    H125106   3.365   0.179   7.442
  551TIP3    H225107   3.512   0.195   7.445
  552TIP3   OH225108   2.708   0.118   7.156
  552TIP3    H125109   2.719   0.030   7.197
  552TIP3    H225110   2.646   0.160   7.220
  553TIP3   OH225111   3.220   1.597   7.007
  553TIP3    H125112   3.223   1.510   6.960
  553TIP3    H225113   3.309   1.629   6.987
  554TIP3   OH225114   3.331   1.376   6.858
  554TIP3    H125115   3.327   1.317   6.779
  554TIP3    H225116   3.300   1.314   6.927
  555TIP3   OH225117   3.478   1.239   7.711
  555TIP3    H125118   3.496   1.170   7.641
  555TIP3    H225119   3.491   1.319   7.656
  556TIP3   OH225120   2.939   0.993   6.676
  556TIP3    H125121   2.855   0.948   6.692
  556TIP3    H225122   2.997   0.925   6.639
  557TIP3   OH225123   3.696   0.888   7.495
  557TIP3    H125124   3.623   0.953   7.494
  557TIP3    H225125   3.755   0.928   7.428
  558TIP3   OH225126   3.290   0.754   7.706
  558TIP3    H125127   3.314   0.845   7.726
  558TIP3    H225128   3.210   0.770   7.653
  559TIP3   OH225129   2.417   1.010   6.973
  559TIP3    H125130   2.379   0.980   6.887
  559TIP3    H225131   2.491   0.948   6.989
  560TIP3   OH225132   2.581   1.342   7.234
  560TIP3    H125133   2.597   1.332   7.139
  560TIP3    H225134   2.665   1.307   7.274
  561TIP3   OH225135   2.464   0.864   7.327
  561TIP3    H125136   2.502   0.877   7.238
  561TIP3    H225137   2.500   0.942   7.376
  562TIP3   OH225138   3.140   1.473   7.405
  562TIP3    H125139   3.109   1.534   7.474
  562TIP3    H225140   3.113   1.386   7.440
  563TIP3   OH225141   2.574   1.314   7.768
  563TIP3    H125142   2.508   1.371   7.811
  563TIP3    H225143   2.526   1.295   7.683
  564TIP3   OH225144   2.275   0.952   7.668
  564TIP3    H125145   2.289   1.037   7.711
  564TIP3    H225146   2.204   0.918   7.725
  565TIP3   OH225147   2.939   1.574   6.826
  565TIP3    H125148   2.933   1.604   6.917
  565TIP3    H225149   2.920   1.657   6.778
  566TIP3   OH225150   2.405   1.495   7.887
  566TIP3    H125151   2.385   1.528   7.797
  566TIP3    H225152   2.314   1.472   7.915
  567TIP3   OH225153   3.563   0.093   6.563
  567TIP3    H125154   3.485   0.150   6.555
  567TIP3    H225155   3.626   0.149   6.513
  568TIP3   OH225156   2.309   0.917   6.739
  568TIP3    H125157   2.345   0.957   6.657
  568TIP3    H225158   2.250   0.850   6.703
  569TIP3   OH225159   3.623   1.470   6.340
  569TIP3    H125160   3.612   1.563   6.311
  569TIP3    H225161   3.720   1.461   6.334
  570TIP3   OH225162   1.972   1.170   7.630
  570TIP3    H125163   1.940   1.162   7.538
  570TIP3    H225164   2.000   1.078   7.648
  571TIP3   OH225165   1.941   1.446   7.259
  571TIP3    H125166   2.035   1.424   7.254
  571TIP3    H225167   1.941   1.509   7.333
  572TIP3   OH225168   3.742   1.497   7.873
  572TIP3    H125169   3.733   1.401   7.862
  572TIP3    H225170   3.654   1.519   7.913
  573TIP3   OH225171   2.831   1.432   7.773
  573TIP3    H125172   2.842   1.505   7.837
  573TIP3    H225173   2.737   1.406   7.784
  574TIP3   OH225174   2.911   1.825   6.722
  574TIP3    H125175   2.905   1.837   6.625
  574TIP3    H225176   2.892   1.916   6.750
  575TIP3   OH225177   2.245   1.711   6.931
  575TIP3    H125178   2.269   1.676   7.020
  575TIP3    H225179   2.163   1.663   6.911
  576TIP3   OH225180   3.206   1.764   6.431
  576TIP3    H125181   3.260   1.690   6.393
  576TIP3    H225182   3.205   1.738   6.524
  577TIP3   OH225183   3.182   1.726   6.703
  577TIP3    H125184   3.090   1.757   6.717
  577TIP3    H225185   3.176   1.640   6.750
  578TIP3   OH225186   3.434   0.618   7.911
  578TIP3    H125187   3.394   0.663   7.834
  578TIP3    H225188   3.434   0.525   7.878
  579TIP3   OH225189   2.195   1.297   7.711
  579TIP3    H125190   2.202   1.266   7.803
  579TIP3    H225191   2.107   1.263   7.684
  580TIP3   OH225192   2.491   0.208   7.287
  580TIP3    H125193   2.442   0.253   7.216
  580TIP3    H225194   2.443   0.244   7.365
  581TIP3   OH225195   2.872   0.183   7.696
  581TIP3    H125196   2.919   0.098   7.705
  581TIP3    H225197   2.797   0.151   7.643
  582TIP3   OH225198   3.190   0.504   7.704
  582TIP3    H125199   3.157   0.480   7.794
  582TIP3    H225200   3.236   0.589   7.721
  583TIP3   OH225201   3.287   0.991   6.360
  583TIP3    H125202   3.258   0.966   6.272
  583TIP3    H225203   3.330   1.076   6.345
  584TIP3   OH225204   2.863   0.368   6.392
  584TIP3    H125205   2.774   0.347   6.358
  584TIP3    H225206   2.919   0.334   6.319
  585TIP3   OH225207   2.468   0.629   7.449
  585TIP3    H125208   2.377   0.633   7.486
  585TIP3    H225209   2.474   0.720   7.410
  586TIP3   OH225210   2.484   0.645   6.932
  586TIP3    H125211   2.388   0.653   6.917
  586TIP3    H225212   2.516   0.629   6.841
  587TIP3   OH225213   2.912   0.733   7.931
  587TIP3    H125214   2.863   0.654   7.964
  587TIP3    H225215   2.994   0.726   7.983
  588TIP3   OH225216   2.205   0.666   7.530
  588TIP3    H125217   2.232   0.694   7.619
  588TIP3    H225218   2.174   0.575   7.544
  589TIP3   OH225219   2.548   0.477   6.294
  589TIP3    H125220   2.460   0.490   6.259
  589TIP3    H225221   2.595   0.540   6.235
  590TIP3   OH225222   1.924   0.395   6.997
  590TIP3    H125223   1.978   0.398   7.080
  590TIP3    H225224   1.974   0.334   6.942
  591TIP3   OH225225   2.037   0.417   6.604
  591TIP3    H125226   2.053   0.436   6.511
  591TIP3    H225227   1.974   0.489   6.626
  592TIP3   OH225228   3.015   0.776   7.520
  592TIP3    H125229   3.074   0.715   7.469
  592TIP3    H225230   2.966   0.712   7.577
  593TIP3   OH225231   2.732   0.387   7.024
  593TIP3    H125232   2.636   0.373   7.026
  593TIP3    H225233   2.756   0.353   7.112
  594TIP3   OH225234   2.185   0.578   6.913
  594TIP3    H125235   2.107   0.594   6.854
  594TIP3    H225236   2.219   0.494   6.878
  595TIP3   OH225237   2.541   0.585   6.673
  595TIP3    H125238   2.634   0.560   6.685
  595TIP3    H225239   2.546   0.659   6.610
  596TIP3   OH225240   3.163   0.345   7.331
  596TIP3    H125241   3.106   0.354   7.412
  596TIP3    H225242   3.095   0.314   7.268
  597TIP3   OH225243   3.457   1.885   7.997
  597TIP3    H125244   3.482   1.930   7.914
  597TIP3    H225245   3.538   1.901   8.049
  598TIP3   OH225246   2.234   1.105   7.937
  598TIP3    H125247   2.300   1.138   8.002
  598TIP3    H225248   2.150   1.110   7.987
  599TIP3   OH225249   2.830   0.692   7.184
  599TIP3    H125250   2.892   0.637   7.134
  599TIP3    H225251   2.800   0.632   7.253
  600TIP3   OH225252   2.296   0.335   6.837
  600TIP3    H125253   2.249   0.260   6.880
  600TIP3    H225254   2.343   0.290   6.765
  601TIP3   OH225255   2.711   0.499   7.428
  601TIP3    H125256   2.631   0.555   7.441
  601TIP3    H225257   2.774   0.546   7.486
  602TIP3   OH225258   3.500   1.079   7.507
  602TIP3    H125259   3.549   1.127   7.436
  602TIP3    H225260   3.411   1.071   7.466
  603TIP3   OH225261   2.880   1.166   7.725
  603TIP3    H125262   2.849   1.129   7.808
  603TIP3    H225263   2.859   1.260   7.736
  604TIP3   OH225264   2.288   1.097   7.196
  604TIP3    H125265   2.341   1.079   7.115
  604TIP3    H225266   2.294   1.013   7.245
  605TIP3   OH225267   1.961   0.898   7.742
  605TIP3    H125268   1.953   0.830   7.811
  605TIP3    H225269   1.912   0.859   7.668
  606TIP3   OH225270   2.660   0.862   7.903
  606TIP3    H125271   2.614   0.801   7.844
  606TIP3    H225272   2.750   0.826   7.899
  607TIP3   OH225273   3.161   1.396   7.765
  607TIP3    H125274   3.075   1.394   7.721
  607TIP3    H225275   3.136   1.443   7.848
  608TIP3   OH225276   3.688   0.637   6.607
  608TIP3    H125277   3.637   0.599   6.533
  608TIP3    H225278   3.675   0.734   6.594
  609TIP3   OH225279   3.726   1.215   7.832
  609TIP3    H125280   3.632   1.216   7.800
  609TIP3    H225281   3.776   1.205   7.748
  610TIP3   OH225282   3.540   1.475   6.600
  610TIP3    H125283   3.553   1.389   6.642
  610TIP3    H225284   3.568   1.459   6.507
  611TIP3   OH225285   3.268   0.983   7.311
  611TIP3    H125286   3.174   0.971   7.289
  611TIP3    H225287   3.308   0.908   7.265
  612TIP3   OH225288   2.489   1.420   6.976
  612TIP3    H125289   2.546   1.489   6.938
  612TIP3    H225290   2.404   1.439   6.932
  613TIP3   OH225291   2.096   0.911   6.415
  613TIP3    H125292   2.126   1.003   6.403
  613TIP3    H225293   1.998   0.921   6.420
  614TIP3   OH225294   2.656   1.212   6.892
  614TIP3    H125295   2.589   1.281   6.906
  614TIP3    H225296   2.613   1.133   6.928
  615TIP3   OH225297   2.691   1.601   7.590
  615TIP3    H125298   2.751   1.670   7.556
  615TIP3    H225299   2.753   1.554   7.649
  616TIP3   OH225300   2.486   1.680   6.817
  616TIP3    H125301   2.398   1.693   6.858
  616TIP3    H225302   2.532   1.758   6.853
  617TIP3   OH225303   3.011   1.207   7.491
  617TIP3    H125304   2.973   1.179   7.578
  617TIP3    H225305   3.047   1.123   7.457
  618TIP3   OH225306   3.328   1.649   7.742
  618TIP3    H125307   3.245   1.600   7.722
  618TIP3    H225308   3.332   1.716   7.670
  619TIP3   OH225309   2.128   0.369   7.634
  619TIP3    H125310   2.048   0.420   7.655
  619TIP3    H225311   2.137   0.313   7.714
  620TIP3   OH225312   3.354   1.154   6.639
  620TIP3    H125313   3.341   1.058   6.645
  620TIP3    H225314   3.452   1.159   6.642
  621TIP3   OH225315   2.090   1.549   7.509
  621TIP3    H125316   2.168   1.493   7.527
  621TIP3    H225317   2.082   1.598   7.591
  622TIP3   OH225318   3.010   0.372   7.555
  622TIP3    H125319   3.066   0.401   7.630
  622TIP3    H225320   2.956   0.302   7.600
  623TIP3   OH225321   2.852   1.556   6.534
  623TIP3    H125322   2.761   1.578   6.561
  623TIP3    H225323   2.892   1.643   6.519
  624TIP3   OH225324   2.881   0.616   7.680
  624TIP3    H125325   2.901   0.651   7.770
  624TIP3    H225326   2.911   0.523   7.683
  625TIP3   OH225327   2.879   0.206   6.833
  625TIP3    H125328   2.846   0.251   6.913
  625TIP3    H225329   2.950   0.268   6.809
  626TIP3   OH225330   2.556   1.647   6.547
  626TIP3    H125331   2.567   1.742   6.522
  626TIP3    H225332   2.523   1.654   6.639
  627TIP3   OH225333   2.429   0.333   6.549
  627TIP3    H125334   2.439   0.421   6.591
  627TIP3    H225335   2.517   0.297   6.572
  628TIP3   OH225336   3.429   0.396   7.767
  628TIP3    H125337   3.344   0.409   7.720
  628TIP3    H225338   3.485   0.356   7.697
  629TIP3   OH225339   3.338   0.737   7.158
  629TIP3    H125340   3.270   0.669   7.169
  629TIP3    H225341   3.414   0.698   7.206
  630TIP3   OH225342   3.431   1.701   7.334
  630TIP3    H125343   3.439   1.767   7.263
  630TIP3    H225344   3.527   1.685   7.350
  631TIP3   OH225345   2.178   0.157   7.212
  631TIP3    H125346   2.164   0.136   7.118
  631TIP3    H225347   2.169   0.065   7.245
  632TIP3   OH225348   2.048   1.497   6.834
  632TIP3    H125349   1.973   1.543   6.873
  632TIP3    H225350   2.061   1.548   6.751
  633TIP3   OH225351   1.987   1.796   7.982
  633TIP3    H125352   2.056   1.786   8.052
  633TIP3    H225353   1.960   1.703   7.973
  634TIP3   OH225354   2.493   1.601   8.154
  634TIP3    H125355   2.589   1.595   8.140
  634TIP3    H225356   2.461   1.557   8.072
  635TIP3   OH225357   2.902   1.662   6.230
  635TIP3    H125358   2.888   1.569   6.204
  635TIP3    H225359   2.989   1.672   6.186
  636TIP3   OH225360   3.098   1.510   8.002
  636TIP3    H125361   3.076   1.420   8.038
  636TIP3    H225362   3.188   1.518   8.040
  637TIP3   OH225363   3.360   1.583   6.297
  637TIP3    H125364   3.379   1.494   6.331
  637TIP3    H225365   3.407   1.585   6.214
  638TIP3   OH225366   1.973   1.124   8.054
  638TIP3    H125367   1.930   1.037   8.050
  638TIP3    H225368   1.930   1.170   7.979
  639TIP3   OH225369   2.654   1.123   7.955
  639TIP3    H125370   2.629   1.183   7.882
  639TIP3    H225371   2.649   1.033   7.914
  640TIP3   OH225372   3.230   1.120   7.739
  640TIP3    H125373   3.313   1.173   7.745
  640TIP3    H225374   3.167   1.194   7.746
  641TIP3   OH225375   2.132   0.810   7.993
  641TIP3    H125376   2.173   0.740   8.046
  641TIP3    H225377   2.145   0.890   8.049
  642TIP3   OH225378   2.461   0.759   7.708
  642TIP3    H125379   2.398   0.834   7.701
  642TIP3    H225380   2.527   0.789   7.642
  643TIP3   OH225381   3.015   1.031   8.065
  643TIP3    H125382   3.061   0.980   7.996
  643TIP3    H225383   2.985   0.961   8.126
  644TIP3   OH225384   2.576   0.530   7.808
  644TIP3    H125385   2.582   0.469   7.732
  644TIP3    H225386   2.542   0.610   7.762
  645TIP3   OH225387   2.580   0.343   7.604
  645TIP3    H125388   2.633   0.368   7.524
  645TIP3    H225389   2.489   0.351   7.567
  646TIP3   OH225390   2.684   0.879   7.591
  646TIP3    H125391   2.778   0.899   7.578
  646TIP3    H225392   2.640   0.960   7.558
  647TIP3   OH225393   3.111   0.664   8.109
  647TIP3    H125394   3.154   0.578   8.122
  647TIP3    H225395   3.187   0.723   8.098
  648TIP3   OH225396   3.292   0.955   7.957
  648TIP3    H125397   3.259   1.009   7.882
  648TIP3    H225398   3.385   0.943   7.928
  649TIP3   OH225399   2.385   0.599   8.042
  649TIP3    H125400   2.317   0.540   8.004
  649TIP3    H225401   2.437   0.619   7.963
  650TIP3   OH225402   2.620   0.080   7.618
  650TIP3    H125403   2.616   0.179   7.624
  650TIP3    H225404   2.528   0.063   7.592
  651TIP3   OH225405   2.765   0.520   8.012
  651TIP3    H125406   2.709   0.496   8.088
  651TIP3    H225407   2.704   0.502   7.937
  652TIP3   OH225408   3.052   0.413   7.915
  652TIP3    H125409   2.958   0.397   7.934
  652TIP3    H225410   3.096   0.365   7.989
  653TIP3   OH225411   3.206   0.317   8.109
  653TIP3    H125412   3.218   0.220   8.114
  653TIP3    H225413   3.175   0.338   8.201
  654TIP3   OH225414   2.172   0.420   8.037
  654TIP3    H125415   2.163   0.348   7.970
  654TIP3    H225416   2.173   0.367   8.120
  655TIP3   OH225417   2.675   0.102   7.910
  655TIP3    H125418   2.650   0.008   7.912
  655TIP3    H225419   2.705   0.114   7.818
  656TIP3   OH225420   2.656   0.127   8.164
  656TIP3    H125421   2.686   0.098   8.075
  656TIP3    H225422   2.631   0.219   8.142
  657TIP3   OH225423   2.653   1.891   6.476
  657TIP3    H125424   2.746   1.898   6.446
  657TIP3    H225425   2.652   1.972   6.529
  658TIP3   OH225426   1.881   1.824   6.858
  658TIP3    H125427   1.807   1.765   6.833
  658TIP3    H225428   1.918   1.776   6.936
  659TIP3   OH225429   1.954   1.676   7.071
  659TIP3    H125430   1.896   1.605   7.106
  659TIP3    H225431   2.017   1.687   7.146
  660TIP3   OH225432   3.704   1.730   7.327
  660TIP3    H125433   3.727   1.759   7.416
  660TIP3    H225434   3.765   1.784   7.274
  661TIP3   OH225435   3.673   1.685   7.642
  661TIP3    H125436   3.638   1.607   7.593
  661TIP3    H225437   3.692   1.644   7.728
  662TIP3   OH225438   3.547   1.268   8.137
  662TIP3    H125439   3.462   1.280   8.184
  662TIP3    H225440   3.586   1.357   8.150
  663TIP3   OH225441   3.621   1.135   6.660
  663TIP3    H125442   3.711   1.177   6.666
  663TIP3    H225443   3.628   1.069   6.733
  664TIP3   OH225444   3.657   0.943   6.857
  664TIP3    H125445   3.581   0.881   6.861
  664TIP3    H225446   3.682   0.943   6.949
  665TIP3   OH225447   3.661   1.186   7.325
  665TIP3    H125448   3.732   1.124   7.298
  665TIP3    H225449   3.691   1.271   7.285
  666TIP3   OH225450   3.530   1.470   7.572
  666TIP3    H125451   3.465   1.516   7.628
  666TIP3    H225452   3.479   1.453   7.489
  667TIP3   OH225453   3.710   0.907   6.527
  667TIP3    H125454   3.635   0.915   6.466
  667TIP3    H225455   3.709   0.997   6.565
  668TIP3   OH225456   3.464   0.775   6.906
  668TIP3    H125457   3.461   0.682   6.871
  668TIP3    H225458   3.430   0.762   6.997
  669TIP3   OH225459   1.959   0.985   7.308
  669TIP3    H125460   1.966   0.966   7.212
  669TIP3    H225461   2.053   0.965   7.335
  670TIP3   OH225462   3.581   0.960   7.883
  670TIP3    H125463   3.618   0.868   7.886
  670TIP3    H225464   3.657   1.008   7.844
  671TIP3   OH225465   3.676   0.717   7.935
  671TIP3    H125466   3.591   0.667   7.929
  671TIP3    H225467   3.742   0.644   7.939
  672TIP3   OH225468   3.495   0.537   6.799
  672TIP3    H125469   3.483   0.440   6.789
  672TIP3    H225470   3.561   0.555   6.730
  673TIP3   OH225471   3.540   0.601   7.280
  673TIP3    H125472   3.635   0.621   7.296
  673TIP3    H225473   3.510   0.573   7.367
  674TIP3   OH225474   3.529   0.674   7.559
  674TIP3    H125475   3.436   0.693   7.583
  674TIP3    H225476   3.571   0.762   7.552
  675TIP3   OH225477   1.962   0.519   7.901
  675TIP3    H125478   2.046   0.493   7.944
  675TIP3    H225479   1.906   0.440   7.921
  676TIP3   OH225480   3.761   0.133   8.068
  676TIP3    H125481   3.837   0.108   8.013
  676TIP3    H225482   3.722   0.205   8.012
  677TIP3   OH225483   3.528   0.269   6.780
  677TIP3    H125484   3.535   0.266   6.878
  677TIP3    H225485   3.445   0.218   6.764
  678TIP3   OH225486   2.045   0.384   7.233
  678TIP3    H125487   2.086   0.295   7.238
  678TIP3    H225488   2.122   0.440   7.249
  679TIP3   OH225489   1.887   0.670   7.325
  679TIP3    H125490   1.950   0.645   7.254
  679TIP3    H225491   1.914   0.761   7.340
  680TIP3   OH225492   3.647   0.327   7.929
  680TIP3    H125493   3.566   0.335   7.984
  680TIP3    H225494   3.607   0.284   7.850
  681TIP3   OH225495   3.700   0.267   6.400
  681TIP3    H125496   3.737   0.245   6.313
  681TIP3    H225497   3.653   0.349   6.376
  682TIP3   OH225498   1.932   0.195   6.757
  682TIP3    H125499   1.838   0.202   6.732
  682TIP3    H225500   1.965   0.270   6.704
  683TIP3   OH225501   3.402   1.806   6.949
  683TIP3    H125502   3.445   1.764   6.871
  683TIP3    H225503   3.478   1.814   7.010
  684TIP3   OH225504   1.948   0.155   7.547
  684TIP3    H125505   1.897   0.168   7.628
  684TIP3    H225506   1.913   0.229   7.494
  685TIP3   OH225507   2.141   1.435   7.956
  685TIP3    H125508   2.056   1.475   7.930
  685TIP3    H225509   2.121   1.398   8.042
  686TIP3   OH225510   2.416   1.583   7.623
  686TIP3    H125511   2.416   1.676   7.592
  686TIP3    H225512   2.513   1.569   7.630
  687TIP3   OH225513   2.837   1.690   7.884
  687TIP3    H125514   2.841   1.681   7.981
  687TIP3    H225515   2.928   1.723   7.865
  688TIP3   OH225516   3.052   1.852   7.854
  688TIP3    H125517   3.133   1.808   7.823
  688TIP3    H225518   3.085   1.906   7.929
  689TIP3   OH225519   3.565   0.146   7.753
  689TIP3    H125520   3.513   0.169   7.673
  689TIP3    H225521   3.564   0.048   7.746
  690TIP3   OH225522   2.164   1.893   7.591
  690TIP3    H125523   2.086   1.941   7.555
  690TIP3    H225524   2.161   1.925   7.683
  691TIP3   OH225525   2.411   1.844   7.493
  691TIP3    H125526   2.319   1.863   7.523
  691TIP3    H225527   2.425   1.910   7.422
  692TIP3   OH225528   2.864   1.807   7.445
  692TIP3    H125529   2.785   1.850   7.408
  692TIP3    H225530   2.907   1.884   7.488
  693TIP3   OH225531   3.090   1.684   7.566
  693TIP3    H125532   3.020   1.720   7.508
  693TIP3    H225533   3.163   1.745   7.544
  694TIP3   OH225534   3.344   1.833   7.544
  694TIP3    H125535   3.361   1.922   7.507
  694TIP3    H225536   3.376   1.779   7.468
  695TIP3   OH225537   2.123   1.728   7.299
  695TIP3    H125538   2.093   1.668   7.371
  695TIP3    H225539   2.213   1.693   7.280
  696TIP3   OH225540   2.348   1.637   7.175
  696TIP3    H125541   2.337   1.541   7.193
  696TIP3    H225542   2.434   1.652   7.219
  697TIP3   OH225543   2.574   1.623   7.321
  697TIP3    H125544   2.608   1.535   7.298
  697TIP3    H225545   2.580   1.622   7.418
  698TIP3   OH225546   2.945   0.270   7.184
  698TIP3    H125547   2.872   0.206   7.175
  698TIP3    H225548   3.018   0.218   7.144
  699TIP3   OH225549   3.398   0.101   7.195
  699TIP3    H125550   3.464   0.132   7.131
  699TIP3    H225551   3.313   0.133   7.157
  700TIP3   OH225552   3.635   0.194   7.012
  700TIP3    H125553   3.677   0.170   6.927
  700TIP3    H225554   3.687   0.276   7.035
  701TIP3   OH225555   2.155   0.134   6.926
  701TIP3    H125556   2.092   0.142   6.852
  701TIP3    H225557   2.170   0.036   6.930
  702TIP3   OH225558   2.599   0.120   6.872
  702TIP3    H125559   2.690   0.147   6.848
  702TIP3    H225560   2.599   0.145   6.966
  703TIP3   OH225561   3.152   0.129   7.077
  703TIP3    H125562   3.162   0.153   6.983
  703TIP3    H225563   3.145   0.031   7.070
  704TIP3   OH225564   3.297   0.173   6.695
  704TIP3    H125565   3.259   0.189   6.608
  704TIP3    H225566   3.300   0.075   6.697
  705TIP3   OH225567   2.054   1.674   6.628
  705TIP3    H125568   1.995   1.660   6.551
  705TIP3    H225569   2.056   1.771   6.627
  706TIP3   OH225570   2.251   0.255   6.347
  706TIP3    H125571   2.320   0.209   6.299
  706TIP3    H225572   2.303   0.292   6.421
  707TIP3   OH225573   2.725   0.311   6.618
  707TIP3    H125574   2.774   0.278   6.695
  707TIP3    H225575   2.797   0.363   6.575
  708TIP3   OH225576   2.930   1.832   6.450
  708TIP3    H125577   3.027   1.835   6.437
  708TIP3    H225578   2.908   1.784   6.367
  709TIP3   OH225579   3.545   1.713   6.747
  709TIP3    H125580   3.532   1.628   6.698
  709TIP3    H225581   3.542   1.775   6.671
  710TIP3   OH225582   2.141   0.207   7.873
  710TIP3    H125583   2.105   0.120   7.845
  710TIP3    H225584   2.215   0.170   7.926
  711TIP3   OH225585   2.340   0.113   8.037
  711TIP3    H125586   2.431   0.143   8.057
  711TIP3    H225587   2.357   0.024   8.000
  712TIP3   OH225588   2.268   1.817   6.399
  712TIP3    H125589   2.200   1.881   6.426
  712TIP3    H225590   2.213   1.742   6.372
  713TIP3   OH225591   3.279   0.067   8.121
  713TIP3    H125592   3.219  -0.010   8.132
  713TIP3    H225593   3.321   0.042   8.037
  714TIP3   OH225594   3.508   1.617   7.933
  714TIP3    H125595   3.428   1.597   7.879
  714TIP3    H225596   3.495   1.713   7.948
  715TIP3   OH225597   4.969   0.994   6.930
  715TIP3    H125598   4.966   1.091   6.935
  715TIP3    H225599   4.881   0.975   6.895
  716TIP3   OH225600   4.859   0.889   7.280
  716TIP3    H125601   4.880   0.862   7.372
  716TIP3    H225602   4.798   0.816   7.256
  717TIP3   OH225603   4.070   0.919   7.425
  717TIP3    H125604   4.072   0.832   7.466
  717TIP3    H225605   4.132   0.965   7.485
  718TIP3   OH225606   5.182   1.199   7.110
  718TIP3    H125607   5.170   1.132   7.179
  718TIP3    H225608   5.181   1.279   7.164
  719TIP3   OH225609   4.166   1.357   7.225
  719TIP3    H125610   4.133   1.266   7.234
  719TIP3    H225611   4.259   1.343   7.246
  720TIP3   OH225612   3.865   0.686   6.797
  720TIP3    H125613   3.783   0.685   6.851
  720TIP3    H225614   3.828   0.706   6.708
  721TIP3   OH225615   3.991   0.935   7.056
  721TIP3    H125616   3.982   0.838   7.074
  721TIP3    H225617   3.948   0.944   6.970
  722TIP3   OH225618   4.928   1.742   7.088
  722TIP3    H125619   4.986   1.681   7.037
  722TIP3    H225620   4.907   1.685   7.163
  723TIP3   OH225621   4.675   1.139   7.343
  723TIP3    H125622   4.710   1.070   7.284
  723TIP3    H225623   4.758   1.175   7.382
  724TIP3   OH225624   5.537   0.302   7.387
  724TIP3    H125625   5.546   0.373   7.454
  724TIP3    H225626   5.601   0.330   7.319
  725TIP3   OH225627   5.027   0.617   7.390
  725TIP3    H125628   5.047   0.523   7.407
  725TIP3    H225629   4.997   0.611   7.297
  726TIP3   OH225630   4.333   0.405   7.032
  726TIP3    H125631   4.348   0.497   7.000
  726TIP3    H225632   4.281   0.367   6.958
  727TIP3   OH225633   5.077   0.424   6.933
  727TIP3    H125634   5.135   0.398   7.008
  727TIP3    H225635   5.135   0.486   6.888
  728TIP3   OH225636   3.970   0.677   7.136
  728TIP3    H125637   4.046   0.655   7.191
  728TIP3    H225638   3.996   0.635   7.051
  729TIP3   OH225639   4.498   0.841   7.104
  729TIP3    H125640   4.573   0.784   7.132
  729TIP3    H225641   4.443   0.775   7.058
  730TIP3   OH225642   5.570   0.473   7.601
  730TIP3    H125643   5.528   0.554   7.564
  730TIP3    H225644   5.566   0.491   7.696
  731TIP3   OH225645   4.205   0.306   7.455
  731TIP3    H125646   4.186   0.381   7.394
  731TIP3    H225647   4.126   0.305   7.514
  732TIP3   OH225648   4.919   1.287   6.819
  732TIP3    H125649   5.002   1.327   6.788
  732TIP3    H225650   4.872   1.367   6.849
  733TIP3   OH225651   4.434   1.078   7.471
  733TIP3    H125652   4.385   1.154   7.511
  733TIP3    H225653   4.512   1.123   7.430
  734TIP3   OH225654   5.283   0.439   7.117
  734TIP3    H125655   5.270   0.355   7.164
  734TIP3    H225656   5.346   0.482   7.178
  735TIP3   OH225657   4.184   0.501   7.269
  735TIP3    H125658   4.248   0.567   7.304
  735TIP3    H225659   4.230   0.468   7.190
  736TIP3   OH225660   4.301   1.299   7.549
  736TIP3    H125661   4.285   1.393   7.531
  736TIP3    H225662   4.226   1.277   7.611
  737TIP3   OH225663   3.873   1.225   6.662
  737TIP3    H125664   3.914   1.220   6.574
  737TIP3    H225665   3.927   1.289   6.711
  738TIP3   OH225666   5.268   1.416   7.354
  738TIP3    H125667   5.172   1.433   7.364
  738TIP3    H225668   5.290   1.497   7.303
  739TIP3   OH225669   5.314   0.186   7.504
  739TIP3    H125670   5.247   0.191   7.434
  739TIP3    H225671   5.392   0.213   7.451
  740TIP3   OH225672   4.605   0.094   7.171
  740TIP3    H125673   4.621   0.010   7.219
  740TIP3    H225674   4.546   0.142   7.232
  741TIP3   OH225675   5.106   1.576   6.968
  741TIP3    H125676   5.148   1.497   6.927
  741TIP3    H225677   5.175   1.646   6.951
  742TIP3   OH225678   5.243   1.353   6.853
  742TIP3    H125679   5.245   1.287   6.781
  742TIP3    H225680   5.228   1.294   6.930
  743TIP3   OH225681   5.353   1.237   7.712
  743TIP3    H125682   5.357   1.163   7.647
  743TIP3    H225683   5.373   1.313   7.654
  744TIP3   OH225684   4.807   0.922   6.682
  744TIP3    H125685   4.754   0.991   6.639
  744TIP3    H225686   4.886   0.915   6.624
  745TIP3   OH225687   5.559   0.891   7.493
  745TIP3    H125688   5.491   0.963   7.493
  745TIP3    H225689   5.622   0.929   7.429
  746TIP3   OH225690   5.212   0.950   6.810
  746TIP3    H125691   5.133   0.967   6.866
  746TIP3    H225692   5.263   0.887   6.866
  747TIP3   OH225693   5.162   0.770   7.700
  747TIP3    H125694   5.172   0.865   7.716
  747TIP3    H225695   5.091   0.771   7.634
  748TIP3   OH225696   4.369   1.010   6.919
  748TIP3    H125697   4.311   0.960   6.855
  748TIP3    H225698   4.411   0.938   6.972
  749TIP3   OH225699   4.461   1.327   7.205
  749TIP3    H125700   4.504   1.389   7.145
  749TIP3    H225701   4.535   1.293   7.259
  750TIP3   OH225702   4.343   0.879   7.325
  750TIP3    H125703   4.393   0.881   7.240
  750TIP3    H225704   4.387   0.949   7.378
  751TIP3   OH225705   5.005   1.453   7.402
  751TIP3    H125706   4.984   1.508   7.480
  751TIP3    H225707   4.992   1.363   7.437
  752TIP3   OH225708   4.441   1.324   7.783
  752TIP3    H125709   4.373   1.373   7.833
  752TIP3    H225710   4.399   1.315   7.694
  753TIP3   OH225711   5.071   0.915   6.589
  753TIP3    H125712   5.101   0.897   6.680
  753TIP3    H225713   5.121   0.998   6.576
  754TIP3   OH225714   4.167   0.957   7.676
  754TIP3    H125715   4.188   1.030   7.735
  754TIP3    H225716   4.092   0.919   7.725
  755TIP3   OH225717   4.809   1.550   6.859
  755TIP3    H125718   4.795   1.569   6.952
  755TIP3    H225719   4.766   1.625   6.815
  756TIP3   OH225720   4.279   1.505   7.895
  756TIP3    H125721   4.276   1.533   7.801
  756TIP3    H225722   4.185   1.480   7.907
  757TIP3   OH225723   5.427   0.046   6.596
  757TIP3    H125724   5.377  -0.010   6.535
  757TIP3    H225725   5.516   0.041   6.555
  758TIP3   OH225726   4.199   0.911   6.740
  758TIP3    H125727   4.126   0.968   6.711
  758TIP3    H225728   4.175   0.824   6.706
  759TIP3   OH225729   5.589   1.496   6.398
  759TIP3    H125730   5.577   1.548   6.479
  759TIP3    H225731   5.602   1.404   6.432
  760TIP3   OH225732   3.870   1.169   7.612
  760TIP3    H125733   3.820   1.160   7.529
  760TIP3    H225734   3.891   1.075   7.632
  761TIP3   OH225735   3.814   1.446   7.286
  761TIP3    H125736   3.910   1.442   7.302
  761TIP3    H225737   3.791   1.519   7.345
  762TIP3   OH225738   5.625   1.498   7.864
  762TIP3    H125739   5.604   1.404   7.855
  762TIP3    H225740   5.544   1.528   7.911
  763TIP3   OH225741   4.705   1.448   7.786
  763TIP3    H125742   4.725   1.518   7.851
  763TIP3    H225743   4.610   1.430   7.800
  764TIP3   OH225744   4.764   1.819   6.721
  764TIP3    H125745   4.782   1.856   6.632
  764TIP3    H225746   4.756   1.903   6.772
  765TIP3   OH225747   4.121   1.721   6.915
  765TIP3    H125748   4.156   1.700   7.004
  765TIP3    H225749   4.048   1.657   6.906
  766TIP3   OH225750   5.025   1.731   6.717
  766TIP3    H125751   4.928   1.738   6.720
  766TIP3    H225752   5.040   1.652   6.769
  767TIP3   OH225753   5.334   0.632   7.904
  767TIP3    H125754   5.286   0.670   7.828
  767TIP3    H225755   5.341   0.539   7.873
  768TIP3   OH225756   4.098   1.278   7.727
  768TIP3    H125757   4.096   1.237   7.816
  768TIP3    H225758   4.009   1.255   7.691
  769TIP3   OH225759   4.360   0.186   7.279
  769TIP3    H125760   4.275   0.207   7.237
  769TIP3    H225761   4.346   0.243   7.358
  770TIP3   OH225762   4.766   0.162   7.689
  770TIP3    H125763   4.818   0.079   7.690
  770TIP3    H225764   4.683   0.127   7.652
  771TIP3   OH225765   5.102   0.506   7.756
  771TIP3    H125766   5.033   0.488   7.824
  771TIP3    H225767   5.115   0.602   7.763
  772TIP3   OH225768   4.362   0.633   7.419
  772TIP3    H125769   4.278   0.637   7.469
  772TIP3    H225770   4.363   0.725   7.385
  773TIP3   OH225771   4.335   0.664   6.954
  773TIP3    H125772   4.243   0.636   6.933
  773TIP3    H225773   4.371   0.665   6.862
  774TIP3   OH225774   4.872   0.698   6.816
  774TIP3    H125775   4.837   0.781   6.777
  774TIP3    H225776   4.942   0.673   6.753
  775TIP3   OH225777   4.760   0.743   7.932
  775TIP3    H125778   4.722   0.656   7.958
  775TIP3    H225779   4.851   0.733   7.964
  776TIP3   OH225780   4.992   0.668   7.105
  776TIP3    H125781   4.973   0.743   7.045
  776TIP3    H225782   4.985   0.592   7.046
  777TIP3   OH225783   4.094   0.631   7.539
  777TIP3    H125784   4.139   0.659   7.620
  777TIP3    H225785   4.050   0.549   7.569
  778TIP3   OH225786   4.359   0.342   6.239
  778TIP3    H125787   4.347   0.416   6.301
  778TIP3    H225788   4.419   0.378   6.172
  779TIP3   OH225789   3.809   0.389   7.030
  779TIP3    H125790   3.867   0.386   7.109
  779TIP3    H225791   3.861   0.349   6.958
  780TIP3   OH225792   3.893   0.421   6.606
  780TIP3    H125793   3.928   0.430   6.516
  780TIP3    H225794   3.833   0.498   6.608
  781TIP3   OH225795   4.925   0.818   7.526
  781TIP3    H125796   4.966   0.739   7.481
  781TIP3    H225797   4.860   0.772   7.585
  782TIP3   OH225798   4.624   0.380   7.011
  782TIP3    H125799   4.531   0.352   7.016
  782TIP3    H225800   4.658   0.354   7.099
  783TIP3   OH225801   4.074   0.555   6.903
  783TIP3    H125802   3.999   0.574   6.842
  783TIP3    H225803   4.120   0.482   6.856
  784TIP3   OH225804   4.418   0.647   6.706
  784TIP3    H125805   4.503   0.599   6.708
  784TIP3    H225806   4.402   0.660   6.611
  785TIP3   OH225807   5.054   0.329   7.330
  785TIP3    H125808   5.002   0.312   7.410
  785TIP3    H225809   4.994   0.300   7.259
  786TIP3   OH225810   4.318   0.700   6.404
  786TIP3    H125811   4.226   0.668   6.394
  786TIP3    H225812   4.357   0.674   6.319
  787TIP3   OH225813   5.323   1.890   7.995
  787TIP3    H125814   5.360   1.918   7.909
  787TIP3    H225815   5.394   1.919   8.053
  788TIP3   OH225816   4.118   1.109   7.942
  788TIP3    H125817   4.188   1.137   8.005
  788TIP3    H225818   4.039   1.105   7.999
  789TIP3   OH225819   4.726   0.659   7.221
  789TIP3    H125820   4.786   0.624   7.153
  789TIP3    H225821   4.727   0.589   7.288
  790TIP3   OH225822   4.186   0.331   6.814
  790TIP3    H125823   4.146   0.242   6.828
  790TIP3    H225824   4.215   0.326   6.720
  791TIP3   OH225825   4.578   0.472   7.466
  791TIP3    H125826   4.511   0.541   7.448
  791TIP3    H225827   4.652   0.527   7.497
  792TIP3   OH225828   5.381   1.089   7.498
  792TIP3    H125829   5.434   1.154   7.444
  792TIP3    H225830   5.298   1.086   7.448
  793TIP3   OH225831   5.027   0.421   6.436
  793TIP3    H125832   4.968   0.458   6.370
  793TIP3    H225833   5.051   0.500   6.487
  794TIP3   OH225834   4.739   1.177   7.723
  794TIP3    H125835   4.755   1.135   7.807
  794TIP3    H225836   4.729   1.271   7.750
  795TIP3   OH225837   5.052   0.624   6.611
  795TIP3    H125838   5.144   0.609   6.642
  795TIP3    H225839   5.060   0.712   6.571
  796TIP3   OH225840   4.179   1.076   7.182
  796TIP3    H125841   4.105   1.029   7.136
  796TIP3    H225842   4.195   1.011   7.254
  797TIP3   OH225843   4.783   1.261   6.573
  797TIP3    H125844   4.753   1.356   6.571
  797TIP3    H225845   4.819   1.258   6.664
  798TIP3   OH225846   3.825   0.912   7.737
  798TIP3    H125847   3.828   0.839   7.801
  798TIP3    H225848   3.791   0.868   7.657
  799TIP3   OH225849   4.507   0.875   7.902
  799TIP3    H125850   4.483   0.788   7.867
  799TIP3    H225851   4.603   0.863   7.912
  800TIP3   OH225852   5.035   1.401   7.755
  800TIP3    H125853   4.961   1.424   7.699
  800TIP3    H225854   5.006   1.442   7.839
  801TIP3   OH225855   5.547   0.651   6.615
  801TIP3    H125856   5.535   0.635   6.520
  801TIP3    H225857   5.554   0.750   6.614
  802TIP3   OH225858   5.596   1.211   7.842
  802TIP3    H125859   5.502   1.219   7.813
  802TIP3    H225860   5.644   1.210   7.756
  803TIP3   OH225861   5.391   1.475   6.619
  803TIP3    H125862   5.414   1.414   6.691
  803TIP3    H225863   5.411   1.422   6.541
  804TIP3   OH225864   5.130   0.997   7.321
  804TIP3    H125865   5.042   0.967   7.294
  804TIP3    H225866   5.187   0.925   7.289
  805TIP3   OH225867   4.354   1.425   6.960
  805TIP3    H125868   4.428   1.485   6.938
  805TIP3    H225869   4.284   1.465   6.906
  806TIP3   OH225870   4.536   1.226   6.896
  806TIP3    H125871   4.513   1.303   6.844
  806TIP3    H225872   4.502   1.150   6.845
  807TIP3   OH225873   4.577   1.621   7.579
  807TIP3    H125874   4.647   1.674   7.538
  807TIP3    H225875   4.627   1.574   7.648
  808TIP3   OH225876   4.452   1.662   6.876
  808TIP3    H125877   4.360   1.687   6.859
  808TIP3    H225878   4.490   1.753   6.881
  809TIP3   OH225879   4.896   1.195   7.492
  809TIP3    H125880   4.851   1.173   7.577
  809TIP3    H225881   4.939   1.111   7.470
  810TIP3   OH225882   5.075   1.328   6.443
  810TIP3    H125883   5.139   1.279   6.498
  810TIP3    H225884   4.993   1.317   6.493
  811TIP3   OH225885   5.218   1.663   7.738
  811TIP3    H125886   5.134   1.620   7.712
  811TIP3    H225887   5.232   1.723   7.661
  812TIP3   OH225888   5.654   1.792   6.457
  812TIP3    H125889   5.647   1.806   6.362
  812TIP3    H225890   5.564   1.816   6.489
  813TIP3   OH225891   4.012   0.377   7.648
  813TIP3    H125892   3.960   0.431   7.710
  813TIP3    H225893   4.030   0.303   7.711
  814TIP3   OH225894   5.219   1.160   6.654
  814TIP3    H125895   5.219   1.083   6.715
  814TIP3    H225896   5.317   1.176   6.654
  815TIP3   OH225897   3.987   1.550   7.497
  815TIP3    H125898   4.055   1.486   7.522
  815TIP3    H225899   3.972   1.595   7.581
  816TIP3   OH225900   4.511   1.435   6.276
  816TIP3    H125901   4.492   1.460   6.185
  816TIP3    H225902   4.446   1.489   6.324
  817TIP3   OH225903   4.912   0.353   7.581
  817TIP3    H125904   4.961   0.386   7.658
  817TIP3    H225905   4.856   0.285   7.624
  818TIP3   OH225906   4.933   0.338   6.715
  818TIP3    H125907   4.968   0.393   6.643
  818TIP3    H225908   5.001   0.353   6.786
  819TIP3   OH225909   4.736   1.523   6.582
  819TIP3    H125910   4.680   1.595   6.615
  819TIP3    H225911   4.776   1.564   6.502
  820TIP3   OH225912   4.652   0.516   6.747
  820TIP3    H125913   4.742   0.551   6.763
  820TIP3    H225914   4.632   0.470   6.831
  821TIP3   OH225915   4.781   0.631   7.669
  821TIP3    H125916   4.729   0.648   7.750
  821TIP3    H225917   4.801   0.536   7.670
  822TIP3   OH225918   4.711   0.207   6.824
  822TIP3    H125919   4.713   0.274   6.894
  822TIP3    H225920   4.783   0.240   6.766
  823TIP3   OH225921   4.313   0.346   6.572
  823TIP3    H125922   4.319   0.442   6.584
  823TIP3    H225923   4.410   0.325   6.566
  824TIP3   OH225924   5.348   0.392   7.765
  824TIP3    H125925   5.251   0.405   7.763
  824TIP3    H225926   5.367   0.371   7.672
  825TIP3   OH225927   5.253   0.754   7.159
  825TIP3    H125928   5.169   0.704   7.161
  825TIP3    H225929   5.316   0.692   7.200
  826TIP3   OH225930   4.202   1.391   6.422
  826TIP3    H125931   4.181   1.486   6.429
  826TIP3    H225932   4.168   1.371   6.333
  827TIP3   OH225933   5.312   1.683   7.314
  827TIP3    H125934   5.322   1.750   7.243
  827TIP3    H225935   5.405   1.680   7.344
  828TIP3   OH225936   4.099   0.154   7.166
  828TIP3    H125937   4.010   0.195   7.163
  828TIP3    H225938   4.077   0.063   7.197
  829TIP3   OH225939   3.960   1.492   6.836
  829TIP3    H125940   3.874   1.520   6.869
  829TIP3    H225941   3.958   1.539   6.750
  830TIP3   OH225942   3.864   1.781   7.975
  830TIP3    H125943   3.936   1.768   8.042
  830TIP3    H225944   3.834   1.689   7.965
  831TIP3   OH225945   4.378   1.620   8.146
  831TIP3    H125946   4.471   1.593   8.134
  831TIP3    H225947   4.336   1.575   8.071
  832TIP3   OH225948   4.809   1.589   6.328
  832TIP3    H125949   4.713   1.594   6.317
  832TIP3    H225950   4.839   1.587   6.236
  833TIP3   OH225951   4.982   1.516   7.998
  833TIP3    H125952   4.958   1.426   8.031
  833TIP3    H225953   5.072   1.522   8.037
  834TIP3   OH225954   3.857   1.133   8.056
  834TIP3    H125955   3.808   1.049   8.058
  834TIP3    H225956   3.820   1.173   7.974
  835TIP3   OH225957   4.545   1.140   7.957
  835TIP3    H125958   4.516   1.201   7.885
  835TIP3    H225959   4.526   1.050   7.920
  836TIP3   OH225960   4.858   1.281   6.219
  836TIP3    H125961   4.835   1.312   6.307
  836TIP3    H225962   4.953   1.269   6.226
  837TIP3   OH225963   5.110   1.126   7.757
  837TIP3    H125964   5.193   1.180   7.759
  837TIP3    H225965   5.048   1.201   7.758
  838TIP3   OH225966   3.995   0.811   8.010
  838TIP3    H125967   4.076   0.760   8.022
  838TIP3    H225968   4.008   0.884   8.074
  839TIP3   OH225969   4.333   0.747   7.665
  839TIP3    H125970   4.282   0.828   7.684
  839TIP3    H225971   4.415   0.787   7.628
  840TIP3   OH225972   4.899   1.035   8.076
  840TIP3    H125973   4.947   0.982   8.009
  840TIP3    H225974   4.866   0.968   8.138
  841TIP3   OH225975   4.470   0.561   7.804
  841TIP3    H125976   4.437   0.473   7.776
  841TIP3    H225977   4.423   0.619   7.740
  842TIP3   OH225978   4.415   0.337   7.623
  842TIP3    H125979   4.476   0.385   7.563
  842TIP3    H225980   4.331   0.336   7.574
  843TIP3   OH225981   4.580   0.896   7.595
  843TIP3    H125982   4.661   0.948   7.581
  843TIP3    H225983   4.515   0.963   7.565
  844TIP3   OH225984   5.004   0.657   8.113
  844TIP3    H125985   5.044   0.568   8.110
  844TIP3    H225986   5.084   0.711   8.119
  845TIP3   OH225987   5.186   0.963   7.962
  845TIP3    H125988   5.150   1.011   7.885
  845TIP3    H225989   5.281   0.961   7.939
  846TIP3   OH225990   4.260   0.629   8.039
  846TIP3    H125991   4.180   0.573   8.028
  846TIP3    H225992   4.317   0.589   7.971
  847TIP3   OH225993   4.515   0.089   7.593
  847TIP3    H125994   4.514   0.187   7.598
  847TIP3    H225995   4.419   0.077   7.606
  848TIP3   OH225996   4.635   0.508   8.019
  848TIP3    H125997   4.570   0.490   8.090
  848TIP3    H225998   4.578   0.502   7.939
  849TIP3   OH225999   4.912   0.433   7.926
  849TIP3    H126000   4.822   0.403   7.942
  849TIP3    H226001   4.962   0.392   8.001
  850TIP3   OH226002   5.067   0.326   8.118
  850TIP3    H126003   5.084   0.230   8.120
  850TIP3    H226004   5.066   0.349   8.214
  851TIP3   OH226005   4.055   0.447   8.041
  851TIP3    H126006   4.113   0.386   7.989
  851TIP3    H226007   4.057   0.396   8.126
  852TIP3   OH226008   4.569   0.044   7.922
  852TIP3    H126009   4.526  -0.044   7.917
  852TIP3    H226010   4.565   0.077   7.831
  853TIP3   OH226011   4.554   0.147   8.169
  853TIP3    H126012   4.543   0.115   8.076
  853TIP3    H226013   4.489   0.220   8.159
  854TIP3   OH226014   3.739   1.867   6.873
  854TIP3    H126015   3.681   1.800   6.832
  854TIP3    H226016   3.794   1.813   6.934
  855TIP3   OH226017   3.843   1.691   7.056
  855TIP3    H126018   3.782   1.625   7.093
  855TIP3    H226019   3.903   1.707   7.133
  856TIP3   OH226020   5.574   1.744   7.341
  856TIP3    H126021   5.623   1.763   7.423
  856TIP3    H226022   5.628   1.786   7.273
  857TIP3   OH226023   5.543   1.701   7.647
  857TIP3    H126024   5.516   1.624   7.592
  857TIP3    H226025   5.569   1.655   7.729
  858TIP3   OH226026   5.427   1.271   8.141
  858TIP3    H126027   5.342   1.289   8.187
  858TIP3    H226028   5.473   1.358   8.151
  859TIP3   OH226029   5.477   1.152   6.714
  859TIP3    H126030   5.531   1.162   6.632
  859TIP3    H226031   5.511   1.066   6.747
  860TIP3   OH226032   5.570   0.925   6.862
  860TIP3    H126033   5.494   0.868   6.888
  860TIP3    H226034   5.623   0.934   6.943
  861TIP3   OH226035   5.551   1.213   7.343
  861TIP3    H126036   5.615   1.141   7.323
  861TIP3    H226037   5.587   1.290   7.294
  862TIP3   OH226038   5.408   1.475   7.577
  862TIP3    H126039   5.342   1.521   7.632
  862TIP3    H226040   5.358   1.459   7.493
  863TIP3   OH226041   5.545   0.908   6.513
  863TIP3    H126042   5.541   0.873   6.423
  863TIP3    H226043   5.576   0.999   6.497
  864TIP3   OH226044   5.368   0.761   6.917
  864TIP3    H126045   5.342   0.669   6.904
  864TIP3    H226046   5.343   0.776   7.012
  865TIP3   OH226047   3.853   0.998   7.306
  865TIP3    H126048   3.869   0.968   7.215
  865TIP3    H226049   3.942   0.986   7.344
  866TIP3   OH226050   5.466   0.967   7.891
  866TIP3    H126051   5.512   0.880   7.895
  866TIP3    H226052   5.537   1.029   7.863
  867TIP3   OH226053   5.577   0.726   7.934
  867TIP3    H126054   5.491   0.678   7.934
  867TIP3    H226055   5.640   0.650   7.942
  868TIP3   OH226056   5.357   0.393   6.293
  868TIP3    H126057   5.429   0.329   6.284
  868TIP3    H226058   5.286   0.345   6.336
  869TIP3   OH226059   5.306   0.553   6.715
  869TIP3    H126060   5.340   0.468   6.751
  869TIP3    H226061   5.387   0.582   6.669
  870TIP3   OH226062   5.423   0.577   7.306
  870TIP3    H126063   5.519   0.599   7.319
  870TIP3    H226064   5.391   0.582   7.399
  871TIP3   OH226065   5.395   0.676   7.552
  871TIP3    H126066   5.304   0.705   7.574
  871TIP3    H226067   5.442   0.761   7.540
  872TIP3   OH226068   3.835   0.511   7.901
  872TIP3    H126069   3.906   0.480   7.961
  872TIP3    H226070   3.776   0.433   7.905
  873TIP3   OH226071   5.623   0.101   8.066
  873TIP3    H126072   5.684   0.069   7.998
  873TIP3    H226073   5.594   0.187   8.025
  874TIP3   OH226074   5.406   0.316   6.794
  874TIP3    H126075   5.408   0.282   6.885
  874TIP3    H226076   5.350   0.249   6.751
  875TIP3   OH226077   3.939   0.356   7.259
  875TIP3    H126078   3.998   0.306   7.316
  875TIP3    H226079   3.977   0.446   7.268
  876TIP3   OH226080   3.793   0.642   7.335
  876TIP3    H126081   3.846   0.638   7.252
  876TIP3    H226082   3.836   0.716   7.381
  877TIP3   OH226083   5.549   0.327   7.946
  877TIP3    H126084   5.468   0.345   7.999
  877TIP3    H226085   5.510   0.285   7.866
  878TIP3   OH226086   3.818   0.216   6.783
  878TIP3    H126087   3.730   0.210   6.741
  878TIP3    H226088   3.853   0.291   6.729
  879TIP3   OH226089   5.281   1.759   6.926
  879TIP3    H126090   5.346   1.744   6.854
  879TIP3    H226091   5.324   1.822   6.985
  880TIP3   OH226092   3.817   0.148   7.581
  880TIP3    H126093   3.760   0.172   7.656
  880TIP3    H226094   3.792   0.212   7.513
  881TIP3   OH226095   4.021   1.434   7.957
  881TIP3    H126096   3.936   1.466   7.921
  881TIP3    H226097   3.998   1.414   8.048
  882TIP3   OH226098   4.305   1.580   7.621
  882TIP3    H126099   4.293   1.671   7.586
  882TIP3    H226100   4.403   1.576   7.617
  883TIP3   OH226101   4.717   1.710   7.883
  883TIP3    H126102   4.731   1.703   7.979
  883TIP3    H226103   4.805   1.737   7.852
  884TIP3   OH226104   4.939   1.873   7.832
  884TIP3    H126105   5.024   1.833   7.809
  884TIP3    H226106   4.960   1.918   7.916
  885TIP3   OH226107   5.488   0.148   7.729
  885TIP3    H126108   5.410   0.176   7.677
  885TIP3    H226109   5.480   0.051   7.717
  886TIP3   OH226110   4.039   1.890   7.583
  886TIP3    H126111   3.964   1.945   7.551
  886TIP3    H226112   4.040   1.911   7.677
  887TIP3   OH226113   4.282   1.819   7.485
  887TIP3    H126114   4.194   1.849   7.516
  887TIP3    H226115   4.299   1.885   7.415
  888TIP3   OH226116   4.755   1.802   7.420
  888TIP3    H126117   4.676   1.852   7.392
  888TIP3    H226118   4.795   1.868   7.481
  889TIP3   OH226119   4.972   1.675   7.558
  889TIP3    H126120   4.910   1.709   7.491
  889TIP3    H226121   5.049   1.731   7.535
  890TIP3   OH226122   5.229   1.826   7.520
  890TIP3    H126123   5.233   1.913   7.475
  890TIP3    H226124   5.263   1.770   7.446
  891TIP3   OH226125   3.986   1.733   7.282
  891TIP3    H126126   3.966   1.678   7.360
  891TIP3    H226127   4.078   1.702   7.261
  892TIP3   OH226128   4.217   1.654   7.167
  892TIP3    H126129   4.202   1.558   7.171
  892TIP3    H226130   4.305   1.659   7.211
  893TIP3   OH226131   4.443   1.651   7.300
  893TIP3    H126132   4.484   1.565   7.314
  893TIP3    H226133   4.453   1.693   7.387
  894TIP3   OH226134   4.819   0.286   7.183
  894TIP3    H126135   4.770   0.209   7.215
  894TIP3    H226136   4.870   0.245   7.111
  895TIP3   OH226137   5.293   0.152   7.161
  895TIP3    H126138   5.380   0.144   7.119
  895TIP3    H226139   5.243   0.084   7.115
  896TIP3   OH226140   5.534   0.193   6.996
  896TIP3    H126141   5.564   0.176   6.905
  896TIP3    H226142   5.575   0.281   7.013
  897TIP3   OH226143   4.062   0.113   6.886
  897TIP3    H126144   3.976   0.148   6.853
  897TIP3    H226145   4.039   0.017   6.888
  898TIP3   OH226146   3.926   0.121   6.517
  898TIP3    H126147   3.913   0.164   6.431
  898TIP3    H226148   3.864   0.172   6.570
  899TIP3   OH226149   4.447   0.088   6.953
  899TIP3    H126150   4.499   0.123   6.878
  899TIP3    H226151   4.513   0.102   7.027
  900TIP3   OH226152   5.014   0.136   7.021
  900TIP3    H126153   5.062   0.158   6.939
  900TIP3    H226154   5.033   0.041   7.032
  901TIP3   OH226155   5.155   0.182   6.749
  901TIP3    H126156   5.070   0.192   6.701
  901TIP3    H226157   5.199   0.112   6.698
  902TIP3   OH226158   3.909   1.677   6.620
  902TIP3    H126159   3.850   1.646   6.550
  902TIP3    H226160   3.950   1.755   6.577
  903TIP3   OH226161   4.572   0.300   6.616
  903TIP3    H126162   4.627   0.246   6.676
  903TIP3    H226163   4.609   0.388   6.639
  904TIP3   OH226164   4.832   1.874   6.462
  904TIP3    H126165   4.866   1.795   6.416
  904TIP3    H226166   4.740   1.873   6.426
  905TIP3   OH226167   5.451   1.706   6.731
  905TIP3    H126168   5.428   1.622   6.684
  905TIP3    H226169   5.440   1.773   6.658
  906TIP3   OH226170   4.027   0.199   7.859
  906TIP3    H126171   3.992   0.107   7.844
  906TIP3    H226172   4.103   0.175   7.914
  907TIP3   OH226173   4.161   0.053   8.076
  907TIP3    H126174   4.238   0.103   8.043
  907TIP3    H226175   4.201  -0.030   8.107
  908TIP3   OH226176   5.019   0.055   8.091
  908TIP3    H126177   5.034  -0.041   8.103
  908TIP3    H226178   5.064   0.069   8.006
  909TIP3   OH226179   5.398   1.621   7.934
  909TIP3    H126180   5.320   1.608   7.875
  909TIP3    H226181   5.381   1.711   7.965
  910TIP3   OH226182   6.863   1.004   6.932
  910TIP3    H126183   6.854   1.096   6.962
  910TIP3    H226184   6.783   0.996   6.877
  911TIP3   OH226185   6.738   0.893   7.272
  911TIP3    H126186   6.743   0.834   7.350
  911TIP3    H226187   6.671   0.850   7.216
  912TIP3   OH226188   5.946   0.898   7.406
  912TIP3    H126189   5.931   0.818   7.460
  912TIP3    H226190   6.004   0.949   7.464
  913TIP3   OH226191   7.086   1.201   7.141
  913TIP3    H126192   7.077   1.141   7.216
  913TIP3    H226193   7.083   1.289   7.185
  914TIP3   OH226194   6.056   1.350   7.247
  914TIP3    H126195   6.021   1.261   7.227
  914TIP3    H226196   6.151   1.327   7.245
  915TIP3   OH226197   5.740   0.687   6.816
  915TIP3    H126198   5.703   0.775   6.796
  915TIP3    H226199   5.660   0.635   6.828
  916TIP3   OH226200   5.766   0.950   7.060
  916TIP3    H126201   5.794   0.857   7.075
  916TIP3    H226202   5.834   0.984   7.000
  917TIP3   OH226203   6.792   1.722   7.099
  917TIP3    H126204   6.875   1.682   7.063
  917TIP3    H226205   6.773   1.659   7.169
  918TIP3   OH226206   6.549   1.208   7.343
  918TIP3    H126207   6.568   1.146   7.272
  918TIP3    H226208   6.639   1.226   7.377
  919TIP3   OH226209   7.421   0.313   7.343
  919TIP3    H126210   7.447   0.376   7.413
  919TIP3    H226211   7.467   0.351   7.265
  920TIP3   OH226212   6.913   0.623   7.393
  920TIP3    H126213   6.950   0.534   7.386
  920TIP3    H226214   6.865   0.633   7.310
  921TIP3   OH226215   6.220   0.407   7.049
  921TIP3    H126216   6.235   0.490   6.999
  921TIP3    H226217   6.169   0.354   6.983
  922TIP3   OH226218   6.961   0.461   6.957
  922TIP3    H126219   7.015   0.439   7.035
  922TIP3    H226220   7.029   0.493   6.896
  923TIP3   OH226221   5.848   0.691   7.136
  923TIP3    H126222   5.919   0.661   7.195
  923TIP3    H226223   5.874   0.645   7.053
  924TIP3   OH226224   6.349   0.828   7.099
  924TIP3    H126225   6.429   0.784   7.134
  924TIP3    H226226   6.313   0.756   7.042
  925TIP3   OH226227   7.468   0.470   7.605
  925TIP3    H126228   7.399   0.537   7.606
  925TIP3    H226229   7.504   0.486   7.695
  926TIP3   OH226230   6.101   0.322   7.470
  926TIP3    H126231   6.072   0.377   7.394
  926TIP3    H226232   6.021   0.328   7.528
  927TIP3   OH226233   6.777   1.266   6.843
  927TIP3    H126234   6.749   1.268   6.750
  927TIP3    H226235   6.763   1.360   6.866
  928TIP3   OH226236   6.318   1.088   7.451
  928TIP3    H126237   6.257   1.163   7.469
  928TIP3    H226238   6.396   1.134   7.414
  929TIP3   OH226239   7.145   0.423   7.143
  929TIP3    H126240   7.101   0.367   7.210
  929TIP3    H226241   7.207   0.470   7.200
  930TIP3   OH226242   6.064   0.513   7.262
  930TIP3    H126243   6.120   0.581   7.304
  930TIP3    H226244   6.118   0.487   7.184
  931TIP3   OH226245   6.174   1.287   7.556
  931TIP3    H126246   6.157   1.363   7.497
  931TIP3    H226247   6.092   1.290   7.610
  932TIP3   OH226248   5.831   1.264   6.698
  932TIP3    H126249   5.760   1.272   6.632
  932TIP3    H226250   5.819   1.342   6.754
  933TIP3   OH226251   7.121   1.420   7.281
  933TIP3    H126252   7.034   1.451   7.315
  933TIP3    H226253   7.170   1.503   7.284
  934TIP3   OH226254   7.200   0.177   7.499
  934TIP3    H126255   7.143   0.215   7.429
  934TIP3    H226256   7.268   0.141   7.441
  935TIP3   OH226257   6.475   0.098   7.171
  935TIP3    H126258   6.478   0.009   7.212
  935TIP3    H226259   6.419   0.149   7.234
  936TIP3   OH226260   6.994   1.572   7.020
  936TIP3    H126261   6.977   1.506   6.949
  936TIP3    H226262   7.080   1.608   6.990
  937TIP3   OH226263   7.075   1.375   6.838
  937TIP3    H126264   7.071   1.298   6.776
  937TIP3    H226265   7.110   1.331   6.918
  938TIP3   OH226266   7.215   1.220   7.728
  938TIP3    H126267   7.248   1.163   7.655
  938TIP3    H226268   7.221   1.308   7.686
  939TIP3   OH226269   6.719   0.934   6.669
  939TIP3    H126270   6.662   1.010   6.644
  939TIP3    H226271   6.793   0.941   6.606
  940TIP3   OH226272   6.735   0.812   6.377
  940TIP3    H126273   6.821   0.816   6.425
  940TIP3    H226274   6.722   0.717   6.370
  941TIP3   OH226275   7.425   0.876   7.506
  941TIP3    H126276   7.365   0.955   7.510
  941TIP3    H226277   7.491   0.910   7.441
  942TIP3   OH226278   7.067   0.913   6.784
  942TIP3    H126279   6.994   0.948   6.841
  942TIP3    H226280   7.133   0.888   6.853
  943TIP3   OH226281   7.003   0.805   7.726
  943TIP3    H126282   7.069   0.869   7.693
  943TIP3    H226283   6.949   0.787   7.646
  944TIP3   OH226284   6.212   0.999   6.955
  944TIP3    H126285   6.197   0.955   6.869
  944TIP3    H226286   6.276   0.938   6.998
  945TIP3   OH226287   6.338   1.335   7.240
  945TIP3    H126288   6.345   1.326   7.143
  945TIP3    H226289   6.424   1.300   7.270
  946TIP3   OH226290   6.226   0.875   7.334
  946TIP3    H126291   6.258   0.888   7.242
  946TIP3    H226292   6.262   0.955   7.378
  947TIP3   OH226293   6.892   1.457   7.406
  947TIP3    H126294   6.856   1.527   7.463
  947TIP3    H226295   6.863   1.376   7.453
  948TIP3   OH226296   6.327   1.308   7.773
  948TIP3    H126297   6.263   1.368   7.817
  948TIP3    H226298   6.285   1.298   7.684
  949TIP3   OH226299   6.952   0.883   6.532
  949TIP3    H126300   6.987   0.863   6.621
  949TIP3    H226301   7.025   0.932   6.492
  950TIP3   OH226302   6.031   0.966   7.659
  950TIP3    H126303   6.053   1.053   7.695
  950TIP3    H226304   5.969   0.933   7.726
  951TIP3   OH226305   6.707   1.538   6.858
  951TIP3    H126306   6.728   1.606   6.923
  951TIP3    H226307   6.652   1.588   6.795
  952TIP3   OH226308   6.172   1.503   7.888
  952TIP3    H126309   6.157   1.525   7.793
  952TIP3    H226310   6.079   1.485   7.913
  953TIP3   OH226311   7.244   0.092   6.547
  953TIP3    H126312   7.211   0.031   6.478
  953TIP3    H226313   7.292   0.154   6.488
  954TIP3   OH226314   6.119   0.918   6.687
  954TIP3    H126315   6.103   1.008   6.649
  954TIP3    H226316   6.030   0.894   6.712
  955TIP3   OH226317   7.454   1.464   6.381
  955TIP3    H126318   7.431   1.519   6.305
  955TIP3    H226319   7.468   1.378   6.336
  956TIP3   OH226320   5.754   1.161   7.638
  956TIP3    H126321   5.708   1.148   7.554
  956TIP3    H226322   5.774   1.068   7.660
  957TIP3   OH226323   5.708   1.438   7.273
  957TIP3    H126324   5.800   1.417   7.252
  957TIP3    H226325   5.721   1.508   7.338
  958TIP3   OH226326   7.516   1.527   7.860
  958TIP3    H126327   7.522   1.431   7.870
  958TIP3    H226328   7.430   1.547   7.906
  959TIP3   OH226329   6.600   1.426   7.772
  959TIP3    H126330   6.600   1.513   7.813
  959TIP3    H226331   6.507   1.397   7.775
  960TIP3   OH226332   6.637   1.799   6.681
  960TIP3    H126333   6.611   1.828   6.591
  960TIP3    H226334   6.643   1.882   6.730
  961TIP3   OH226335   6.010   1.725   6.933
  961TIP3    H126336   6.049   1.686   7.014
  961TIP3    H226337   5.937   1.661   6.917
  962TIP3   OH226338   6.927   1.670   6.430
  962TIP3    H126339   6.938   1.642   6.337
  962TIP3    H226340   7.013   1.648   6.466
  963TIP3   OH226341   6.902   1.728   6.752
  963TIP3    H126342   6.816   1.764   6.725
  963TIP3    H226343   6.885   1.634   6.733
  964TIP3   OH226344   7.218   0.645   7.897
  964TIP3    H126345   7.197   0.677   7.807
  964TIP3    H226346   7.253   0.557   7.873
  965TIP3   OH226347   5.964   1.312   7.716
  965TIP3    H126348   5.966   1.267   7.804
  965TIP3    H226349   5.879   1.278   7.681
  966TIP3   OH226350   6.257   0.206   7.292
  966TIP3    H126351   6.188   0.236   7.229
  966TIP3    H226352   6.221   0.243   7.375
  967TIP3   OH226353   6.650   0.173   7.706
  967TIP3    H126354   6.700   0.090   7.704
  967TIP3    H226355   6.575   0.147   7.650
  968TIP3   OH226356   6.987   0.519   7.710
  968TIP3    H126357   6.933   0.477   7.781
  968TIP3    H226358   7.016   0.599   7.757
  969TIP3   OH226359   6.237   0.636   7.439
  969TIP3    H126360   6.148   0.636   7.477
  969TIP3    H226361   6.241   0.729   7.406
  970TIP3   OH226362   6.237   0.648   6.929
  970TIP3    H126363   6.140   0.629   6.923
  970TIP3    H226364   6.265   0.631   6.836
  971TIP3   OH226365   6.799   0.712   6.814
  971TIP3    H126366   6.759   0.787   6.765
  971TIP3    H226367   6.862   0.679   6.749
  972TIP3   OH226368   6.736   0.731   7.923
  972TIP3    H126369   6.674   0.661   7.951
  972TIP3    H226370   6.819   0.704   7.970
  973TIP3   OH226371   6.865   0.689   7.093
  973TIP3    H126372   6.848   0.765   7.036
  973TIP3    H226373   6.883   0.619   7.026
  974TIP3   OH226374   5.971   0.651   7.538
  974TIP3    H126375   6.008   0.686   7.621
  974TIP3    H226376   5.931   0.566   7.567
  975TIP3   OH226377   6.233   0.451   6.288
  975TIP3    H126378   6.273   0.380   6.341
  975TIP3    H226379   6.308   0.487   6.234
  976TIP3   OH226380   5.705   0.392   7.000
  976TIP3    H126381   5.773   0.378   7.070
  976TIP3    H226382   5.735   0.335   6.926
  977TIP3   OH226383   5.796   0.459   6.588
  977TIP3    H126384   5.814   0.518   6.514
  977TIP3    H226385   5.725   0.506   6.633
  978TIP3   OH226386   6.791   0.809   7.536
  978TIP3    H126387   6.850   0.745   7.489
  978TIP3    H226388   6.731   0.743   7.579
  979TIP3   OH226389   6.512   0.392   7.020
  979TIP3    H126390   6.418   0.364   7.016
  979TIP3    H226391   6.532   0.371   7.113
  980TIP3   OH226392   5.966   0.565   6.909
  980TIP3    H126393   5.888   0.586   6.852
  980TIP3    H226394   5.996   0.479   6.871
  981TIP3   OH226395   6.293   0.550   6.687
  981TIP3    H126396   6.378   0.524   6.730
  981TIP3    H226397   6.326   0.559   6.597
  982TIP3   OH226398   6.971   0.310   7.318
  982TIP3    H126399   6.894   0.302   7.376
  982TIP3    H226400   6.937   0.265   7.239
  983TIP3   OH226401   7.199   1.869   8.007
  983TIP3    H126402   7.225   1.922   7.930
  983TIP3    H226403   7.280   1.876   8.062
  984TIP3   OH226404   5.982   1.169   7.942
  984TIP3    H126405   6.057   1.172   8.005
  984TIP3    H226406   5.914   1.119   7.993
  985TIP3   OH226407   6.579   0.694   7.184
  985TIP3    H126408   6.654   0.657   7.135
  985TIP3    H226409   6.556   0.621   7.242
  986TIP3   OH226410   6.071   0.324   6.848
  986TIP3    H126411   6.007   0.254   6.874
  986TIP3    H226412   6.113   0.285   6.770
  987TIP3   OH226413   6.458   0.481   7.453
  987TIP3    H126414   6.384   0.546   7.446
  987TIP3    H226415   6.528   0.536   7.491
  988TIP3   OH226416   6.530   1.144   6.599
  988TIP3    H126417   6.462   1.199   6.556
  988TIP3    H226418   6.503   1.157   6.692
  989TIP3   OH226419   7.257   1.083   7.508
  989TIP3    H126420   7.310   1.136   7.444
  989TIP3    H226421   7.174   1.077   7.458
  990TIP3   OH226422   6.705   1.150   7.809
  990TIP3    H126423   6.620   1.141   7.856
  990TIP3    H226424   6.700   1.245   7.786
  991TIP3   OH226425   6.982   0.588   6.622
  991TIP3    H126426   7.079   0.590   6.638
  991TIP3    H226427   6.973   0.555   6.531
  992TIP3   OH226428   6.054   1.086   7.194
  992TIP3    H126429   6.114   1.065   7.120
  992TIP3    H226430   6.051   1.004   7.247
  993TIP3   OH226431   5.732   0.900   7.739
  993TIP3    H126432   5.720   0.838   7.813
  993TIP3    H226433   5.680   0.857   7.668
  994TIP3   OH226434   6.450   0.863   7.890
  994TIP3    H126435   6.372   0.823   7.849
  994TIP3    H226436   6.514   0.789   7.886
  995TIP3   OH226437   6.919   1.391   7.777
  995TIP3    H126438   6.851   1.430   7.721
  995TIP3    H226439   6.895   1.428   7.865
  996TIP3   OH226440   7.443   0.633   6.580
  996TIP3    H126441   7.367   0.595   6.531
  996TIP3    H226442   7.459   0.719   6.535
  997TIP3   OH226443   7.469   1.190   7.849
  997TIP3    H126444   7.378   1.209   7.817
  997TIP3    H226445   7.518   1.182   7.763
  998TIP3   OH226446   7.342   1.437   6.650
  998TIP3    H126447   7.247   1.419   6.643
  998TIP3    H226448   7.366   1.465   6.559
  999TIP3   OH226449   7.018   0.979   7.327
  999TIP3    H126450   6.926   0.970   7.296
  999TIP3    H226451   7.060   0.910   7.272
 1000TIP3   OH226452   6.289   1.413   6.981
 1000TIP3    H126453   6.337   1.490   6.945
 1000TIP3    H226454   6.203   1.423   6.936
 1001TIP3   OH226455   5.878   0.914   6.430
 1001TIP3    H126456   5.892   1.007   6.457
 1001TIP3    H226457   5.788   0.921   6.394
 1002TIP3   OH226458   6.410   1.192   6.868
 1002TIP3    H126459   6.362   1.276   6.883
 1002TIP3    H226460   6.356   1.128   6.917
 1003TIP3   OH226461   6.460   1.613   7.573
 1003TIP3    H126462   6.521   1.680   7.537
 1003TIP3    H226463   6.521   1.559   7.626
 1004TIP3   OH226464   6.259   1.651   6.834
 1004TIP3    H126465   6.169   1.677   6.860
 1004TIP3    H226466   6.306   1.734   6.857
 1005TIP3   OH226467   6.782   1.192   7.492
 1005TIP3    H126468   6.780   1.158   7.583
 1005TIP3    H226469   6.821   1.118   7.442
 1006TIP3   OH226470   7.090   1.265   6.420
 1006TIP3    H126471   7.051   1.257   6.508
 1006TIP3    H226472   7.021   1.310   6.368
 1007TIP3   OH226473   7.102   1.634   7.740
 1007TIP3    H126474   7.016   1.591   7.724
 1007TIP3    H226475   7.107   1.699   7.666
 1008TIP3   OH226476   5.904   0.378   7.645
 1008TIP3    H126477   5.821   0.418   7.674
 1008TIP3    H226478   5.920   0.312   7.716
 1009TIP3   OH226479   7.129   1.153   6.676
 1009TIP3    H126480   7.103   1.060   6.694
 1009TIP3    H226481   7.219   1.144   6.638
 1010TIP3   OH226482   5.865   1.565   7.507
 1010TIP3    H126483   5.931   1.496   7.524
 1010TIP3    H226484   5.865   1.612   7.591
 1011TIP3   OH226485   6.292   1.328   6.517
 1011TIP3    H126486   6.360   1.392   6.544
 1011TIP3    H226487   6.232   1.385   6.464
 1012TIP3   OH226488   6.033   1.136   6.561
 1012TIP3    H126489   5.960   1.167   6.621
 1012TIP3    H226490   6.076   1.220   6.535
 1013TIP3   OH226491   6.760   0.392   7.603
 1013TIP3    H126492   6.850   0.398   7.640
 1013TIP3    H226493   6.725   0.312   7.647
 1014TIP3   OH226494   6.806   0.346   6.743
 1014TIP3    H126495   6.843   0.401   6.672
 1014TIP3    H226496   6.873   0.354   6.815
 1015TIP3   OH226497   6.634   1.568   6.519
 1015TIP3    H126498   6.544   1.602   6.533
 1015TIP3    H226499   6.659   1.605   6.434
 1016TIP3   OH226500   6.553   0.534   6.788
 1016TIP3    H126501   6.647   0.559   6.795
 1016TIP3    H226502   6.539   0.481   6.870
 1017TIP3   OH226503   6.652   0.629   7.678
 1017TIP3    H126504   6.667   0.633   7.774
 1017TIP3    H226505   6.694   0.544   7.653
 1018TIP3   OH226506   6.650   0.178   6.877
 1018TIP3    H126507   6.618   0.253   6.931
 1018TIP3    H226508   6.712   0.225   6.818
 1019TIP3   OH226509   6.357   1.628   6.576
 1019TIP3    H126510   6.367   1.710   6.524
 1019TIP3    H226511   6.301   1.654   6.652
 1020TIP3   OH226512   6.236   0.315   6.525
 1020TIP3    H126513   6.215   0.397   6.571
 1020TIP3    H226514   6.329   0.301   6.553
 1021TIP3   OH226515   7.210   0.388   7.751
 1021TIP3    H126516   7.121   0.428   7.748
 1021TIP3    H226517   7.220   0.356   7.659
 1022TIP3   OH226518   7.106   0.765   7.176
 1022TIP3    H126519   7.020   0.719   7.180
 1022TIP3    H226520   7.162   0.706   7.230
 1023TIP3   OH226521   5.795   0.659   6.363
 1023TIP3    H126522   5.839   0.739   6.398
 1023TIP3    H226523   5.730   0.704   6.303
 1024TIP3   OH226524   7.217   1.664   7.333
 1024TIP3    H126525   7.197   1.727   7.260
 1024TIP3    H226526   7.306   1.699   7.357
 1025TIP3   OH226527   5.988   0.159   7.193
 1025TIP3    H126528   5.946   0.139   7.107
 1025TIP3    H226529   5.977   0.070   7.233
 1026TIP3   OH226530   5.838   1.523   6.859
 1026TIP3    H126531   5.750   1.563   6.866
 1026TIP3    H226532   5.860   1.549   6.767
 1027TIP3   OH226533   5.761   1.775   7.967
 1027TIP3    H126534   5.838   1.762   8.025
 1027TIP3    H226535   5.724   1.685   7.962
 1028TIP3   OH226536   6.310   1.641   8.120
 1028TIP3    H126537   6.348   1.561   8.160
 1028TIP3    H226538   6.262   1.602   8.043
 1029TIP3   OH226539   6.862   1.532   8.010
 1029TIP3    H126540   6.840   1.449   8.059
 1029TIP3    H226541   6.959   1.533   8.028
 1030TIP3   OH226542   5.739   1.141   8.061
 1030TIP3    H126543   5.705   1.051   8.053
 1030TIP3    H226544   5.699   1.183   7.981
 1031TIP3   OH226545   6.414   1.127   7.952
 1031TIP3    H126546   6.381   1.189   7.881
 1031TIP3    H226547   6.425   1.041   7.906
 1032TIP3   OH226548   6.978   1.117   7.767
 1032TIP3    H126549   7.064   1.164   7.764
 1032TIP3    H226550   6.920   1.195   7.776
 1033TIP3   OH226551   5.888   0.840   8.000
 1033TIP3    H126552   5.931   0.755   8.018
 1033TIP3    H226553   5.911   0.891   8.081
 1034TIP3   OH226554   6.211   0.768   7.680
 1034TIP3    H126555   6.150   0.843   7.666
 1034TIP3    H226556   6.291   0.800   7.632
 1035TIP3   OH226557   6.768   1.005   8.083
 1035TIP3    H126558   6.859   1.000   8.116
 1035TIP3    H226559   6.724   0.941   8.145
 1036TIP3   OH226560   6.318   0.560   7.804
 1036TIP3    H126561   6.344   0.490   7.741
 1036TIP3    H226562   6.280   0.628   7.744
 1037TIP3   OH226563   6.318   0.342   7.627
 1037TIP3    H126564   6.376   0.384   7.559
 1037TIP3    H226565   6.230   0.355   7.587
 1038TIP3   OH226566   6.446   0.903   7.584
 1038TIP3    H126567   6.537   0.931   7.572
 1038TIP3    H226568   6.394   0.977   7.544
 1039TIP3   OH226569   6.910   0.658   8.119
 1039TIP3    H126570   6.914   0.562   8.126
 1039TIP3    H226571   7.005   0.680   8.120
 1040TIP3   OH226572   7.050   0.963   7.978
 1040TIP3    H126573   7.064   1.019   7.898
 1040TIP3    H226574   7.131   0.910   7.974
 1041TIP3   OH226575   6.158   0.606   8.020
 1041TIP3    H126576   6.084   0.544   8.001
 1041TIP3    H226577   6.217   0.589   7.943
 1042TIP3   OH226578   6.400   0.089   7.602
 1042TIP3    H126579   6.394   0.186   7.619
 1042TIP3    H226580   6.309   0.077   7.570
 1043TIP3   OH226581   6.541   0.538   8.002
 1043TIP3    H126582   6.508   0.513   8.091
 1043TIP3    H226583   6.469   0.501   7.947
 1044TIP3   OH226584   6.843   0.404   7.905
 1044TIP3    H126585   6.757   0.370   7.935
 1044TIP3    H226586   6.906   0.354   7.962
 1045TIP3   OH226587   6.996   0.321   8.116
 1045TIP3    H126588   6.970   0.226   8.117
 1045TIP3    H226589   6.961   0.349   8.205
 1046TIP3   OH226590   5.949   0.429   8.040
 1046TIP3    H126591   5.940   0.363   7.968
 1046TIP3    H226592   5.944   0.373   8.121
 1047TIP3   OH226593   6.347   0.053   7.878
 1047TIP3    H126594   6.348  -0.046   7.883
 1047TIP3    H226595   6.379   0.068   7.788
 1048TIP3   OH226596   6.431   0.116   8.145
 1048TIP3    H126597   6.414   0.095   8.051
 1048TIP3    H226598   6.429   0.213   8.141
 1049TIP3   OH226599   5.637   1.854   6.861
 1049TIP3    H126600   5.568   1.792   6.825
 1049TIP3    H226601   5.661   1.807   6.944
 1050TIP3   OH226602   5.709   1.707   7.071
 1050TIP3    H126603   5.650   1.644   7.113
 1050TIP3    H226604   5.783   1.713   7.136
 1051TIP3   OH226605   7.429   1.797   7.394
 1051TIP3    H126606   7.481   1.863   7.444
 1051TIP3    H226607   7.498   1.761   7.334
 1052TIP3   OH226608   7.419   1.688   7.658
 1052TIP3    H126609   7.398   1.625   7.586
 1052TIP3    H226610   7.460   1.628   7.724
 1053TIP3   OH226611   7.296   1.287   8.119
 1053TIP3    H126612   7.223   1.301   8.184
 1053TIP3    H226613   7.343   1.373   8.128
 1054TIP3   OH226614   7.418   1.102   6.655
 1054TIP3    H126615   7.469   1.176   6.694
 1054TIP3    H226616   7.413   1.043   6.732
 1055TIP3   OH226617   7.451   0.909   6.863
 1055TIP3    H126618   7.370   0.865   6.900
 1055TIP3    H226619   7.504   0.928   6.944
 1056TIP3   OH226620   7.440   1.198   7.366
 1056TIP3    H126621   7.521   1.167   7.322
 1056TIP3    H226622   7.453   1.295   7.357
 1057TIP3   OH226623   7.273   1.454   7.581
 1057TIP3    H126624   7.227   1.527   7.624
 1057TIP3    H226625   7.231   1.448   7.494
 1058TIP3   OH226626   7.502   0.885   6.477
 1058TIP3    H126627   7.415   0.882   6.435
 1058TIP3    H226628   7.492   0.964   6.533
 1059TIP3   OH226629   7.248   0.754   6.928
 1059TIP3    H126630   7.221   0.684   6.865
 1059TIP3    H226631   7.190   0.742   7.006
 1060TIP3   OH226632   5.730   1.010   7.322
 1060TIP3    H126633   5.734   0.991   7.225
 1060TIP3    H226634   5.822   0.982   7.346
 1061TIP3   OH226635   7.327   0.959   7.900
 1061TIP3    H126636   7.394   0.887   7.901
 1061TIP3    H226637   7.383   1.037   7.877
 1062TIP3   OH226638   7.477   0.751   7.956
 1062TIP3    H126639   7.384   0.733   7.934
 1062TIP3    H226640   7.510   0.659   7.945
 1063TIP3   OH226641   7.228   0.566   6.745
 1063TIP3    H126642   7.230   0.468   6.729
 1063TIP3    H226643   7.322   0.581   6.765
 1064TIP3   OH226644   7.249   0.587   7.328
 1064TIP3    H126645   7.345   0.592   7.301
 1064TIP3    H226646   7.257   0.553   7.418
 1065TIP3   OH226647   7.252   0.695   7.622
 1065TIP3    H126648   7.178   0.705   7.560
 1065TIP3    H226649   7.317   0.758   7.583
 1066TIP3   OH226650   5.732   0.517   7.922
 1066TIP3    H126651   5.804   0.486   7.982
 1066TIP3    H226652   5.670   0.441   7.925
 1067TIP3   OH226653   7.531   0.052   8.097
 1067TIP3    H126654   7.613   0.039   8.048
 1067TIP3    H226655   7.497   0.136   8.058
 1068TIP3   OH226656   7.277   0.306   6.764
 1068TIP3    H126657   7.284   0.264   6.851
 1068TIP3    H226658   7.214   0.242   6.724
 1069TIP3   OH226659   5.822   0.361   7.250
 1069TIP3    H126660   5.872   0.277   7.251
 1069TIP3    H226661   5.896   0.424   7.252
 1070TIP3   OH226662   5.671   0.647   7.340
 1070TIP3    H126663   5.727   0.630   7.261
 1070TIP3    H226664   5.708   0.730   7.372
 1071TIP3   OH226665   7.440   0.267   7.962
 1071TIP3    H126666   7.362   0.306   8.009
 1071TIP3    H226667   7.393   0.224   7.885
 1072TIP3   OH226668   7.532   0.281   6.436
 1072TIP3    H126669   7.503   0.195   6.395
 1072TIP3    H226670   7.574   0.322   6.359
 1073TIP3   OH226671   5.720   0.229   6.771
 1073TIP3    H126672   5.638   0.267   6.734
 1073TIP3    H226673   5.778   0.246   6.694
 1074TIP3   OH226674   7.180   1.767   6.948
 1074TIP3    H126675   7.218   1.761   6.858
 1074TIP3    H226676   7.260   1.792   6.998
 1075TIP3   OH226677   5.714   0.160   7.542
 1075TIP3    H126678   5.665   0.194   7.618
 1075TIP3    H226679   5.668   0.207   7.469
 1076TIP3   OH226680   5.909   1.447   7.967
 1076TIP3    H126681   5.821   1.470   7.935
 1076TIP3    H226682   5.904   1.352   7.983
 1077TIP3   OH226683   6.190   1.591   7.623
 1077TIP3    H126684   6.188   1.685   7.595
 1077TIP3    H226685   6.286   1.575   7.610
 1078TIP3   OH226686   6.597   1.692   7.873
 1078TIP3    H126687   6.626   1.636   7.946
 1078TIP3    H226688   6.681   1.738   7.851
 1079TIP3   OH226689   6.815   1.858   7.838
 1079TIP3    H126690   6.895   1.837   7.787
 1079TIP3    H226691   6.853   1.894   7.921
 1080TIP3   OH226692   7.352   0.131   7.744
 1080TIP3    H126693   7.275   0.167   7.696
 1080TIP3    H226694   7.329   0.036   7.752
 1081TIP3   OH226695   5.927   1.900   7.588
 1081TIP3    H126696   5.849   1.944   7.547
 1081TIP3    H226697   5.916   1.929   7.680
 1082TIP3   OH226698   6.163   1.833   7.494
 1082TIP3    H126699   6.072   1.853   7.525
 1082TIP3    H226700   6.172   1.895   7.419
 1083TIP3   OH226701   6.645   1.804   7.439
 1083TIP3    H126702   6.608   1.854   7.365
 1083TIP3    H226703   6.652   1.876   7.506
 1084TIP3   OH226704   6.849   1.669   7.571
 1084TIP3    H126705   6.781   1.713   7.514
 1084TIP3    H226706   6.927   1.723   7.547
 1085TIP3   OH226707   7.117   1.815   7.537
 1085TIP3    H126708   7.129   1.903   7.494
 1085TIP3    H226709   7.162   1.762   7.467
 1086TIP3   OH226710   5.891   1.731   7.292
 1086TIP3    H126711   5.874   1.677   7.373
 1086TIP3    H226712   5.979   1.696   7.265
 1087TIP3   OH226713   6.110   1.621   7.162
 1087TIP3    H126714   6.106   1.528   7.191
 1087TIP3    H226715   6.199   1.643   7.196
 1088TIP3   OH226716   6.344   1.633   7.283
 1088TIP3    H126717   6.361   1.537   7.273
 1088TIP3    H226718   6.350   1.643   7.379
 1089TIP3   OH226719   6.691   0.298   7.205
 1089TIP3    H126720   6.644   0.213   7.211
 1089TIP3    H226721   6.751   0.279   7.132
 1090TIP3   OH226722   7.163   0.120   7.174
 1090TIP3    H126723   7.218   0.130   7.093
 1090TIP3    H226724   7.073   0.125   7.136
 1091TIP3   OH226725   7.352   0.152   6.961
 1091TIP3    H126726   7.414   0.142   6.886
 1091TIP3    H226727   7.398   0.223   7.011
 1092TIP3   OH226728   5.913   0.129   6.936
 1092TIP3    H126729   5.847   0.145   6.864
 1092TIP3    H226730   5.940   0.036   6.918
 1093TIP3   OH226731   6.386   0.131   6.910
 1093TIP3    H126732   6.479   0.133   6.881
 1093TIP3    H226733   6.397   0.130   7.007
 1094TIP3   OH226734   6.918   0.151   7.050
 1094TIP3    H126735   6.920   0.170   6.955
 1094TIP3    H226736   6.915   0.052   7.051
 1095TIP3   OH226737   7.041   0.187   6.739
 1095TIP3    H126738   7.032   0.225   6.650
 1095TIP3    H226739   7.069   0.097   6.716
 1096TIP3   OH226740   5.814   1.688   6.650
 1096TIP3    H126741   5.755   1.721   6.579
 1096TIP3    H226742   5.871   1.764   6.668
 1097TIP3   OH226743   6.485   0.318   6.621
 1097TIP3    H126744   6.543   0.259   6.671
 1097TIP3    H226745   6.540   0.397   6.615
 1098TIP3   OH226746   7.328   1.705   6.728
 1098TIP3    H126747   7.326   1.608   6.713
 1098TIP3    H226748   7.413   1.722   6.680
 1099TIP3   OH226749   5.923   0.209   7.863
 1099TIP3    H126750   5.863   0.139   7.833
 1099TIP3    H226751   5.990   0.151   7.904
 1100TIP3   OH226752   6.124   0.094   8.092
 1100TIP3    H126753   6.206   0.148   8.091
 1100TIP3    H226754   6.147   0.027   8.023
 1101TIP3   OH226755   6.929   0.067   8.077
 1101TIP3    H126756   6.896  -0.024   8.093
 1101TIP3    H226757   6.989   0.049   8.003
 1102TIP3   OH226758   7.278   1.606   7.943
 1102TIP3    H126759   7.217   1.602   7.867
 1102TIP3    H226760   7.263   1.698   7.971
 1103TIP3   OH226761   7.539   0.656   6.835
 1103TIP3    H126762   7.500   0.746   6.844
 1103TIP3    H226763   7.532   0.643   6.738
 1104TIP3   OH226764   7.644   0.936   7.058
 1104TIP3    H126765   7.674   0.846   7.080
 1104TIP3    H226766   7.729   0.981   7.046
 1105TIP3   OH226767   7.607   1.304   6.719
 1105TIP3    H126768   7.544   1.342   6.656
 1105TIP3    H226769   7.607   1.373   6.788
 1106TIP3   OH226770   7.561   1.135   7.609
 1106TIP3    H126771   7.517   1.143   7.522
 1106TIP3    H226772   7.586   1.041   7.616
 1107TIP3   OH226773   7.542   1.428   7.302
 1107TIP3    H126774   7.633   1.417   7.268
 1107TIP3    H226775   7.534   1.522   7.280
 1108TIP3   OH226776   7.540   0.345   7.033
 1108TIP3    H126777   7.593   0.415   7.074
 1108TIP3    H226778   7.551   0.368   6.940
 1109TIP3   OH226779   7.677   0.486   6.588
 1109TIP3    H126780   7.693   0.463   6.494
 1109TIP3    H226781   7.581   0.491   6.586
 1110TIP3   OH226782   7.579   0.883   7.736
 1110TIP3    H126783   7.559   0.824   7.811
 1110TIP3    H226784   7.509   0.862   7.671
 1111TIP3   OH226785   7.614   1.763   7.966
 1111TIP3    H126786   7.712   1.767   7.965
 1111TIP3    H226787   7.593   1.679   7.921
 1112TIP3   OH226788   7.616   1.112   8.056
 1112TIP3    H126789   7.562   1.035   8.080
 1112TIP3    H226790   7.562   1.153   7.983
 1113TIP3   OH226791   7.491   1.847   6.881
 1113TIP3    H126792   7.430   1.809   6.814
 1113TIP3    H226793   7.539   1.765   6.904
 1114TIP3   OH226794   7.572   1.683   7.192
 1114TIP3    H126795   7.534   1.635   7.115
 1114TIP3    H226796   7.659   1.700   7.152
 1115TIP3   OH226797   7.610   0.989   7.341
 1115TIP3    H126798   7.594   0.974   7.246
 1115TIP3    H226799   7.705   1.018   7.338
 1116TIP3   OH226800   7.517   0.513   7.875
 1116TIP3    H126801   7.615   0.507   7.876
 1116TIP3    H226802   7.492   0.423   7.905
 1117TIP3   OH226803   7.504   0.630   7.288
 1117TIP3    H126804   7.592   0.618   7.330
 1117TIP3    H226805   7.503   0.726   7.285
 1118TIP3   OH226806   7.571   0.276   6.762
 1118TIP3    H126807   7.482   0.303   6.734
 1118TIP3    H226808   7.624   0.309   6.687
 1119TIP3   OH226809   7.516   0.162   7.536
 1119TIP3    H126810   7.461   0.180   7.616
 1119TIP3    H226811   7.474   0.218   7.467
 1120TIP3   OH226812   7.555   1.727   6.601
 1120TIP3    H126813   7.565   1.748   6.507
 1120TIP3    H226814   7.642   1.702   6.633
 1121TIP3   OH226815   1.215   2.891   6.923
 1121TIP3    H126816   1.199   2.980   6.958
 1121TIP3    H226817   1.160   2.892   6.843
 1122TIP3   OH226818   1.099   2.771   7.266
 1122TIP3    H126819   1.092   2.735   7.358
 1122TIP3    H226820   1.024   2.728   7.220
 1123TIP3   OH226821   0.305   2.764   7.422
 1123TIP3    H126822   0.272   2.698   7.487
 1123TIP3    H226823   0.375   2.805   7.474
 1124TIP3   OH226824   1.411   3.082   7.132
 1124TIP3    H126825   1.399   3.016   7.200
 1124TIP3    H226826   1.435   3.161   7.185
 1125TIP3   OH226827   0.349   3.227   7.262
 1125TIP3    H126828   0.343   3.136   7.226
 1125TIP3    H226829   0.446   3.228   7.264
 1126TIP3   OH226830   0.108   2.598   6.776
 1126TIP3    H126831   0.046   2.670   6.760
 1126TIP3    H226832   0.048   2.535   6.820
 1127TIP3   OH226833   0.210   2.804   7.061
 1127TIP3    H126834   0.219   2.707   7.072
 1127TIP3    H226835   0.245   2.822   6.973
 1128TIP3   OH226836   1.153   3.623   7.089
 1128TIP3    H126837   1.224   3.575   7.040
 1128TIP3    H226838   1.146   3.565   7.166
 1129TIP3   OH226839   0.904   3.078   7.345
 1129TIP3    H126840   0.932   3.027   7.267
 1129TIP3    H226841   0.991   3.093   7.389
 1130TIP3   OH226842   1.765   2.199   7.373
 1130TIP3    H126843   1.775   2.254   7.453
 1130TIP3    H226844   1.843   2.228   7.323
 1131TIP3   OH226845   1.256   2.496   7.370
 1131TIP3    H126846   1.271   2.400   7.384
 1131TIP3    H226847   1.230   2.495   7.276
 1132TIP3   OH226848   0.633   2.303   6.916
 1132TIP3    H126849   0.599   2.349   6.994
 1132TIP3    H226850   0.600   2.217   6.948
 1133TIP3   OH226851   1.275   2.299   6.903
 1133TIP3    H126852   1.320   2.271   6.986
 1133TIP3    H226853   1.345   2.360   6.871
 1134TIP3   OH226854   0.187   2.547   7.130
 1134TIP3    H126855   0.255   2.517   7.194
 1134TIP3    H226856   0.223   2.503   7.051
 1135TIP3   OH226857   0.690   2.748   7.111
 1135TIP3    H126858   0.777   2.720   7.146
 1135TIP3    H226859   0.678   2.675   7.047
 1136TIP3   OH226860   1.787   2.346   7.604
 1136TIP3    H126861   1.757   2.428   7.559
 1136TIP3    H226862   1.790   2.377   7.695
 1137TIP3   OH226863   0.463   2.191   7.483
 1137TIP3    H126864   0.461   2.214   7.388
 1137TIP3    H226865   0.377   2.226   7.511
 1138TIP3   OH226866   1.130   3.150   6.822
 1138TIP3    H126867   1.069   3.144   6.747
 1138TIP3    H226868   1.118   3.244   6.846
 1139TIP3   OH226869   0.684   2.979   7.487
 1139TIP3    H126870   0.625   3.055   7.511
 1139TIP3    H226871   0.757   3.024   7.440
 1140TIP3   OH226872   1.447   2.286   7.114
 1140TIP3    H126873   1.421   2.226   7.185
 1140TIP3    H226874   1.543   2.296   7.127
 1141TIP3   OH226875   0.376   2.430   7.285
 1141TIP3    H126876   0.443   2.479   7.337
 1141TIP3    H226877   0.434   2.362   7.243
 1142TIP3   OH226878   0.542   3.193   7.554
 1142TIP3    H126879   0.532   3.272   7.499
 1142TIP3    H226880   0.451   3.186   7.589
 1143TIP3   OH226881   0.195   3.182   6.684
 1143TIP3    H126882   0.103   3.165   6.713
 1143TIP3    H226883   0.227   3.243   6.753
 1144TIP3   OH226884   1.474   3.291   7.290
 1144TIP3    H126885   1.386   3.315   7.326
 1144TIP3    H226886   1.510   3.380   7.280
 1145TIP3   OH226887   1.473   2.124   7.471
 1145TIP3    H126888   1.396   2.174   7.435
 1145TIP3    H226889   1.551   2.165   7.430
 1146TIP3   OH226890   0.796   1.911   7.214
 1146TIP3    H126891   0.768   1.819   7.225
 1146TIP3    H226892   0.716   1.956   7.249
 1147TIP3   OH226893   1.343   3.472   6.998
 1147TIP3    H126894   1.362   3.393   6.942
 1147TIP3    H226895   1.416   3.533   6.971
 1148TIP3   OH226896   1.441   3.258   6.859
 1148TIP3    H126897   1.429   3.196   6.786
 1148TIP3    H226898   1.422   3.200   6.934
 1149TIP3   OH226899   1.588   3.108   7.719
 1149TIP3    H126900   1.610   3.047   7.645
 1149TIP3    H226901   1.593   3.194   7.672
 1150TIP3   OH226902   1.072   2.830   6.659
 1150TIP3    H126903   1.013   2.897   6.699
 1150TIP3    H226904   1.013   2.783   6.597
 1151TIP3   OH226905   1.808   2.769   7.482
 1151TIP3    H126906   1.740   2.839   7.489
 1151TIP3    H226907   1.870   2.813   7.421
 1152TIP3   OH226908   1.447   2.842   6.789
 1152TIP3    H126909   1.367   2.858   6.844
 1152TIP3    H226910   1.501   2.787   6.849
 1153TIP3   OH226911   1.381   2.670   7.679
 1153TIP3    H126912   1.377   2.761   7.709
 1153TIP3    H226913   1.313   2.673   7.609
 1154TIP3   OH226914   0.538   2.894   6.941
 1154TIP3    H126915   0.540   2.853   6.852
 1154TIP3    H226916   0.597   2.836   6.993
 1155TIP3   OH226917   0.693   3.211   7.229
 1155TIP3    H126918   0.703   3.185   7.136
 1155TIP3    H226919   0.771   3.171   7.271
 1156TIP3   OH226920   0.584   2.773   7.348
 1156TIP3    H126921   0.616   2.777   7.254
 1156TIP3    H226922   0.614   2.859   7.386
 1157TIP3   OH226923   1.236   3.339   7.410
 1157TIP3    H126924   1.211   3.403   7.479
 1157TIP3    H226925   1.205   3.254   7.448
 1158TIP3   OH226926   0.681   3.214   7.785
 1158TIP3    H126927   0.612   3.270   7.826
 1158TIP3    H226928   0.645   3.206   7.693
 1159TIP3   OH226929   0.408   2.836   7.723
 1159TIP3    H126930   0.391   2.928   7.750
 1159TIP3    H226931   0.319   2.796   7.722
 1160TIP3   OH226932   1.043   3.428   6.848
 1160TIP3    H126933   1.045   3.446   6.942
 1160TIP3    H226934   1.014   3.513   6.808
 1161TIP3   OH226935   0.508   3.403   7.894
 1161TIP3    H126936   0.497   3.428   7.800
 1161TIP3    H226937   0.414   3.395   7.921
 1162TIP3   OH226938   1.659   1.959   6.570
 1162TIP3    H126939   1.562   1.959   6.574
 1162TIP3    H226940   1.677   2.022   6.642
 1163TIP3   OH226941   0.459   2.800   6.696
 1163TIP3    H126942   0.415   2.882   6.663
 1163TIP3    H226943   0.386   2.737   6.694
 1164TIP3   OH226944   1.741   3.399   6.408
 1164TIP3    H126945   1.797   3.480   6.405
 1164TIP3    H226946   1.775   3.349   6.332
 1165TIP3   OH226947   0.132   3.038   7.641
 1165TIP3    H126948   0.035   3.043   7.629
 1165TIP3    H226949   0.148   2.942   7.629
 1166TIP3   OH226950   0.098   3.359   7.248
 1166TIP3    H126951   0.163   3.284   7.248
 1166TIP3    H226952   0.130   3.406   7.326
 1167TIP3   OH226953   1.847   3.376   7.869
 1167TIP3    H126954   1.839   3.280   7.877
 1167TIP3    H226955   1.763   3.406   7.911
 1168TIP3   OH226956   0.938   3.326   7.773
 1168TIP3    H126957   0.955   3.398   7.838
 1168TIP3    H226958   0.843   3.304   7.787
 1169TIP3   OH226959   1.021   3.706   6.724
 1169TIP3    H126960   0.997   3.733   6.635
 1169TIP3    H226961   1.021   3.790   6.773
 1170TIP3   OH226962   0.387   3.586   6.921
 1170TIP3    H126963   0.409   3.541   7.006
 1170TIP3    H226964   0.310   3.534   6.889
 1171TIP3   OH226965   1.290   3.628   6.732
 1171TIP3    H126966   1.197   3.650   6.744
 1171TIP3    H226967   1.286   3.531   6.735
 1172TIP3   OH226968   1.524   2.520   7.905
 1172TIP3    H126969   1.477   2.559   7.828
 1172TIP3    H226970   1.538   2.430   7.870
 1173TIP3   OH226971   0.294   3.237   7.698
 1173TIP3    H126972   0.329   3.190   7.776
 1173TIP3    H226973   0.226   3.169   7.671
 1174TIP3   OH226974   0.583   1.969   7.355
 1174TIP3    H126975   0.534   2.022   7.287
 1174TIP3    H226976   0.571   2.031   7.430
 1175TIP3   OH226977   1.069   1.977   7.636
 1175TIP3    H126978   1.116   1.923   7.703
 1175TIP3    H226979   0.978   1.976   7.672
 1176TIP3   OH226980   1.312   2.403   7.730
 1176TIP3    H126981   1.259   2.390   7.813
 1176TIP3    H226982   1.287   2.493   7.702
 1177TIP3   OH226983   0.585   2.527   7.439
 1177TIP3    H126984   0.534   2.548   7.519
 1177TIP3    H226985   0.584   2.617   7.397
 1178TIP3   OH226986   0.595   2.562   6.896
 1178TIP3    H126987   0.499   2.576   6.910
 1178TIP3    H226988   0.593   2.465   6.876
 1179TIP3   OH226989   1.001   2.616   7.931
 1179TIP3    H126990   0.957   2.535   7.964
 1179TIP3    H226991   1.079   2.615   7.989
 1180TIP3   OH226992   1.185   2.527   7.098
 1180TIP3    H126993   1.208   2.618   7.071
 1180TIP3    H226994   1.212   2.473   7.023
 1181TIP3   OH226995   0.284   2.551   7.600
 1181TIP3    H126996   0.361   2.539   7.657
 1181TIP3    H226997   0.241   2.463   7.603
 1182TIP3   OH226998   0.629   2.271   6.310
 1182TIP3    H126999   0.638   2.235   6.220
 1182TIP3    H227000   0.687   2.349   6.302
 1183TIP3   OH227001   0.058   2.319   6.993
 1183TIP3    H127002   0.077   2.260   7.069
 1183TIP3    H227003   0.098   2.272   6.918
 1184TIP3   OH227004   0.214   2.390   6.507
 1184TIP3    H127005   0.135   2.439   6.479
 1184TIP3    H227006   0.198   2.375   6.603
 1185TIP3   OH227007   1.140   2.680   7.521
 1185TIP3    H127008   1.187   2.606   7.476
 1185TIP3    H227009   1.076   2.629   7.578
 1186TIP3   OH227010   0.861   2.219   7.013
 1186TIP3    H127011   0.792   2.259   6.953
 1186TIP3    H227012   0.801   2.212   7.090
 1187TIP3   OH227013   0.327   2.468   6.901
 1187TIP3    H127014   0.240   2.451   6.859
 1187TIP3    H227015   0.360   2.375   6.895
 1188TIP3   OH227016   0.651   2.455   6.618
 1188TIP3    H127017   0.682   2.468   6.708
 1188TIP3    H227018   0.615   2.542   6.598
 1189TIP3   OH227019   1.262   2.228   7.352
 1189TIP3    H127020   1.192   2.222   7.420
 1189TIP3    H227021   1.227   2.167   7.283
 1190TIP3   OH227022   1.573   3.777   8.007
 1190TIP3    H127023   1.596   3.811   7.918
 1190TIP3    H227024   1.656   3.799   8.053
 1191TIP3   OH227025   0.393   3.060   7.889
 1191TIP3    H127026   0.460   3.052   7.959
 1191TIP3    H227027   0.317   3.012   7.929
 1192TIP3   OH227028   0.911   2.586   7.162
 1192TIP3    H127029   0.997   2.543   7.145
 1192TIP3    H227030   0.881   2.537   7.240
 1193TIP3   OH227031   0.380   2.216   6.850
 1193TIP3    H127032   0.372   2.132   6.901
 1193TIP3    H227033   0.416   2.185   6.764
 1194TIP3   OH227034   0.843   2.409   7.432
 1194TIP3    H127035   0.756   2.452   7.430
 1194TIP3    H227036   0.887   2.448   7.510
 1195TIP3   OH227037   0.884   3.028   6.687
 1195TIP3    H127038   0.817   2.970   6.645
 1195TIP3    H227039   0.835   3.056   6.768
 1196TIP3   OH227040   1.618   2.956   7.507
 1196TIP3    H127041   1.666   3.013   7.441
 1196TIP3    H227042   1.532   2.946   7.463
 1197TIP3   OH227043   0.967   3.052   7.755
 1197TIP3    H127044   0.906   3.028   7.828
 1197TIP3    H227045   0.968   3.149   7.764
 1198TIP3   OH227046   0.417   2.984   7.189
 1198TIP3    H127047   0.427   2.954   7.096
 1198TIP3    H227048   0.420   2.899   7.236
 1199TIP3   OH227049   0.133   2.773   7.683
 1199TIP3    H127050   0.137   2.749   7.777
 1199TIP3    H227051   0.044   2.740   7.661
 1200TIP3   OH227052   0.753   2.761   7.910
 1200TIP3    H127053   0.718   2.705   7.840
 1200TIP3    H227054   0.847   2.731   7.910
 1201TIP3   OH227055   1.273   3.282   7.774
 1201TIP3    H127056   1.201   3.315   7.718
 1201TIP3    H227057   1.243   3.316   7.862
 1202TIP3   OH227058   1.807   2.553   6.568
 1202TIP3    H127059   1.750   2.527   6.492
 1202TIP3    H227060   1.812   2.649   6.548
 1203TIP3   OH227061   1.829   3.091   7.839
 1203TIP3    H127062   1.742   3.108   7.796
 1203TIP3    H227063   1.885   3.086   7.759
 1204TIP3   OH227064   1.672   3.347   6.656
 1204TIP3    H127065   1.589   3.301   6.640
 1204TIP3    H227066   1.700   3.366   6.563
 1205TIP3   OH227067   1.371   2.861   7.349
 1205TIP3    H127068   1.280   2.846   7.317
 1205TIP3    H227069   1.417   2.794   7.296
 1206TIP3   OH227070   0.615   3.321   6.949
 1206TIP3    H127071   0.640   3.409   6.913
 1206TIP3    H227072   0.524   3.316   6.918
 1207TIP3   OH227073   0.731   3.092   6.898
 1207TIP3    H127074   0.698   3.184   6.901
 1207TIP3    H227075   0.650   3.041   6.919
 1208TIP3   OH227076   0.822   3.494   7.573
 1208TIP3    H127077   0.892   3.554   7.540
 1208TIP3    H227078   0.872   3.444   7.641
 1209TIP3   OH227079   0.631   3.560   6.836
 1209TIP3    H127080   0.534   3.575   6.845
 1209TIP3    H227081   0.664   3.643   6.877
 1210TIP3   OH227082   1.132   3.080   7.491
 1210TIP3    H127083   1.089   3.050   7.575
 1210TIP3    H227084   1.191   3.006   7.469
 1211TIP3   OH227085   1.310   3.115   6.421
 1211TIP3    H127086   1.357   3.107   6.507
 1211TIP3    H227087   1.332   3.207   6.398
 1212TIP3   OH227088   1.439   3.530   7.743
 1212TIP3    H127089   1.351   3.490   7.725
 1212TIP3    H227090   1.448   3.594   7.668
 1213TIP3   OH227091   0.210   2.295   7.665
 1213TIP3    H127092   0.199   2.312   7.759
 1213TIP3    H227093   0.204   2.199   7.660
 1214TIP3   OH227094   1.478   3.049   6.620
 1214TIP3    H127095   1.464   2.966   6.673
 1214TIP3    H227096   1.576   3.047   6.617
 1215TIP3   OH227097   0.229   3.469   7.488
 1215TIP3    H127098   0.293   3.398   7.505
 1215TIP3    H227099   0.197   3.486   7.577
 1216TIP3   OH227100   0.342   2.987   6.549
 1216TIP3    H127101   0.262   3.035   6.576
 1216TIP3    H227102   0.384   3.060   6.498
 1217TIP3   OH227103   1.113   2.245   7.613
 1217TIP3    H127104   1.189   2.266   7.671
 1217TIP3    H227105   1.101   2.149   7.627
 1218TIP3   OH227106   0.964   3.418   6.536
 1218TIP3    H127107   0.891   3.480   6.558
 1218TIP3    H227108   0.993   3.450   6.449
 1219TIP3   OH227109   1.016   2.501   7.672
 1219TIP3    H127110   1.025   2.516   7.768
 1219TIP3    H227111   1.050   2.409   7.657
 1220TIP3   OH227112   1.008   2.096   6.818
 1220TIP3    H127113   0.949   2.141   6.883
 1220TIP3    H227114   1.092   2.134   6.846
 1221TIP3   OH227115   0.733   3.555   6.576
 1221TIP3    H127116   0.662   3.576   6.514
 1221TIP3    H227117   0.688   3.557   6.663
 1222TIP3   OH227118   0.523   2.214   6.594
 1222TIP3    H127119   0.565   2.301   6.613
 1222TIP3    H227120   0.572   2.187   6.515
 1223TIP3   OH227121   1.567   2.284   7.771
 1223TIP3    H127122   1.472   2.301   7.756
 1223TIP3    H227123   1.603   2.279   7.681
 1224TIP3   OH227124   1.463   2.627   7.167
 1224TIP3    H127125   1.399   2.555   7.175
 1224TIP3    H227126   1.540   2.590   7.216
 1225TIP3   OH227127   0.426   3.205   6.422
 1225TIP3    H127128   0.442   3.293   6.456
 1225TIP3    H227129   0.454   3.213   6.327
 1226TIP3   OH227130   1.548   3.567   7.331
 1226TIP3    H127131   1.543   3.629   7.255
 1226TIP3    H227132   1.645   3.565   7.344
 1227TIP3   OH227133   0.260   1.980   7.205
 1227TIP3    H127134   0.290   1.950   7.117
 1227TIP3    H227135   0.260   1.897   7.257
 1228TIP3   OH227136   0.207   3.414   6.832
 1228TIP3    H127137   0.110   3.413   6.825
 1228TIP3    H227138   0.226   3.457   6.745
 1229TIP3   OH227139   0.181   3.639   7.975
 1229TIP3    H127140   0.234   3.662   8.054
 1229TIP3    H227141   0.182   3.543   7.982
 1230TIP3   OH227142   0.629   3.532   8.122
 1230TIP3    H127143   0.703   3.471   8.136
 1230TIP3    H227144   0.593   3.501   8.037
 1231TIP3   OH227145   1.044   3.403   6.243
 1231TIP3    H127146   1.012   3.415   6.152
 1231TIP3    H227147   1.136   3.438   6.233
 1232TIP3   OH227148   1.209   3.393   8.007
 1232TIP3    H127149   1.189   3.305   8.049
 1232TIP3    H227150   1.300   3.405   8.043
 1233TIP3   OH227151   0.177   3.022   8.050
 1233TIP3    H127152   0.178   2.924   8.054
 1233TIP3    H227153   0.081   3.032   8.033
 1234TIP3   OH227154   0.769   3.024   7.950
 1234TIP3    H127155   0.730   3.085   7.882
 1234TIP3    H227156   0.741   2.934   7.922
 1235TIP3   OH227157   1.339   3.002   7.763
 1235TIP3    H127158   1.426   3.048   7.758
 1235TIP3    H227159   1.283   3.082   7.765
 1236TIP3   OH227160   0.205   2.734   8.013
 1236TIP3    H127161   0.263   2.658   8.018
 1236TIP3    H227162   0.198   2.757   8.108
 1237TIP3   OH227163   0.706   2.812   6.548
 1237TIP3    H127164   0.614   2.797   6.578
 1237TIP3    H227165   0.712   2.758   6.468
 1238TIP3   OH227166   0.576   2.631   7.689
 1238TIP3    H127167   0.530   2.717   7.705
 1238TIP3    H227168   0.652   2.663   7.636
 1239TIP3   OH227169   1.133   2.913   8.074
 1239TIP3    H127170   1.144   2.866   7.990
 1239TIP3    H227171   1.093   2.847   8.133
 1240TIP3   OH227172   0.684   2.417   7.808
 1240TIP3    H127173   0.702   2.361   7.730
 1240TIP3    H227174   0.649   2.498   7.765
 1241TIP3   OH227175   0.714   2.202   7.593
 1241TIP3    H127176   0.759   2.245   7.518
 1241TIP3    H227177   0.619   2.204   7.563
 1242TIP3   OH227178   0.815   2.769   7.586
 1242TIP3    H127179   0.902   2.812   7.583
 1242TIP3    H227180   0.759   2.843   7.554
 1243TIP3   OH227181   1.221   2.541   8.115
 1243TIP3    H127182   1.225   2.445   8.132
 1243TIP3    H227183   1.313   2.558   8.090
 1244TIP3   OH227184   1.440   2.842   7.950
 1244TIP3    H127185   1.378   2.890   7.890
 1244TIP3    H227186   1.525   2.858   7.904
 1245TIP3   OH227187   0.541   2.501   8.049
 1245TIP3    H127188   0.465   2.446   8.021
 1245TIP3    H227189   0.579   2.527   7.964
 1246TIP3   OH227190   0.797   1.943   7.647
 1246TIP3    H127191   0.766   2.036   7.639
 1246TIP3    H227192   0.727   1.897   7.598
 1247TIP3   OH227193   0.868   2.388   8.030
 1247TIP3    H127194   0.803   2.366   8.100
 1247TIP3    H227195   0.810   2.374   7.952
 1248TIP3   OH227196   1.150   2.331   7.933
 1248TIP3    H127197   1.056   2.320   7.953
 1248TIP3    H227198   1.186   2.263   7.994
 1249TIP3   OH227199   1.253   2.147   8.090
 1249TIP3    H127200   1.296   2.061   8.107
 1249TIP3    H227201   1.272   2.198   8.172
 1250TIP3   OH227202   0.339   2.323   8.025
 1250TIP3    H127203   0.372   2.242   7.982
 1250TIP3    H227204   0.313   2.288   8.114
 1251TIP3   OH227205   0.744   1.880   7.919
 1251TIP3    H127206   0.808   1.808   7.931
 1251TIP3    H227207   0.744   1.886   7.821
 1252TIP3   OH227208   0.782   2.020   8.161
 1252TIP3    H127209   0.768   1.970   8.078
 1252TIP3    H227210   0.762   2.110   8.133
 1253TIP3   OH227211   0.176   3.205   6.309
 1253TIP3    H127212   0.250   3.208   6.373
 1253TIP3    H227213   0.223   3.178   6.230
 1254TIP3   OH227214   0.050   3.755   6.850
 1254TIP3    H127215  -0.045   3.766   6.873
 1254TIP3    H227216   0.078   3.691   6.919
 1255TIP3   OH227217   0.127   3.588   7.061
 1255TIP3    H127218   0.160   3.496   7.065
 1255TIP3    H227219   0.174   3.628   7.137
 1256TIP3   OH227220   1.818   3.619   7.332
 1256TIP3    H127221   1.847   3.643   7.421
 1256TIP3    H227222   1.868   3.679   7.275
 1257TIP3   OH227223   1.777   3.574   7.630
 1257TIP3    H127224   1.735   3.497   7.584
 1257TIP3    H227225   1.793   3.533   7.716
 1258TIP3   OH227226   1.668   3.161   8.145
 1258TIP3    H127227   1.582   3.177   8.190
 1258TIP3    H227228   1.708   3.252   8.153
 1259TIP3   OH227229   1.752   2.999   6.645
 1259TIP3    H127230   1.829   3.051   6.676
 1259TIP3    H227231   1.745   2.934   6.717
 1260TIP3   OH227232   1.833   2.804   6.855
 1260TIP3    H127233   1.744   2.765   6.868
 1260TIP3    H227234   1.864   2.814   6.947
 1261TIP3   OH227235   1.765   3.069   7.324
 1261TIP3    H127236   1.834   3.001   7.306
 1261TIP3    H227237   1.806   3.149   7.289
 1262TIP3   OH227238   1.626   3.362   7.575
 1262TIP3    H127239   1.553   3.395   7.631
 1262TIP3    H227240   1.582   3.337   7.492
 1263TIP3   OH227241   1.825   2.810   6.446
 1263TIP3    H127242   1.792   2.860   6.369
 1263TIP3    H227243   1.841   2.885   6.505
 1264TIP3   OH227244   1.652   2.514   6.349
 1264TIP3    H127245   1.703   2.565   6.286
 1264TIP3    H227246   1.685   2.423   6.331
 1265TIP3   OH227247   1.604   2.662   6.928
 1265TIP3    H127248   1.556   2.584   6.894
 1265TIP3    H227249   1.572   2.666   7.020
 1266TIP3   OH227250   0.125   2.911   7.293
 1266TIP3    H127251   0.148   2.876   7.204
 1266TIP3    H227252   0.198   2.872   7.346
 1267TIP3   OH227253   1.695   2.857   7.870
 1267TIP3    H127254   1.772   2.822   7.817
 1267TIP3    H227255   1.720   2.952   7.865
 1268TIP3   OH227256   1.782   2.596   7.966
 1268TIP3    H127257   1.733   2.594   7.883
 1268TIP3    H227258   1.846   2.520   7.953
 1269TIP3   OH227259   1.520   2.405   6.790
 1269TIP3    H127260   1.549   2.314   6.805
 1269TIP3    H227261   1.574   2.432   6.714
 1270TIP3   OH227262   1.647   2.488   7.319
 1270TIP3    H127263   1.745   2.491   7.309
 1270TIP3    H227264   1.642   2.516   7.412
 1271TIP3   OH227265   1.623   2.561   7.611
 1271TIP3    H127266   1.527   2.577   7.614
 1271TIP3    H227267   1.659   2.651   7.599
 1272TIP3   OH227268   0.087   2.356   7.938
 1272TIP3    H127269   0.179   2.364   7.971
 1272TIP3    H227270   0.078   2.261   7.917
 1273TIP3   OH227271   1.832   1.989   8.081
 1273TIP3    H127272   1.877   1.917   8.032
 1273TIP3    H227273   1.835   2.062   8.015
 1274TIP3   OH227274   1.578   2.073   6.797
 1274TIP3    H127275   1.654   2.098   6.854
 1274TIP3    H227276   1.563   1.984   6.835
 1275TIP3   OH227277   0.145   2.216   7.237
 1275TIP3    H127278   0.195   2.131   7.238
 1275TIP3    H227279   0.215   2.279   7.214
 1276TIP3   OH227280   0.046   2.523   7.364
 1276TIP3    H127281   0.105   2.474   7.304
 1276TIP3    H227282   0.073   2.614   7.345
 1277TIP3   OH227283   1.785   2.197   7.934
 1277TIP3    H127284   1.712   2.218   7.996
 1277TIP3    H227285   1.738   2.162   7.856
 1278TIP3   OH227286   0.114   2.222   6.732
 1278TIP3    H127287   0.085   2.135   6.762
 1278TIP3    H227288   0.141   2.199   6.642
 1279TIP3   OH227289   1.535   3.636   6.938
 1279TIP3    H127290   1.596   3.616   6.864
 1279TIP3    H227291   1.581   3.701   6.992
 1280TIP3   OH227292   0.048   2.023   7.595
 1280TIP3    H127293  -0.048   2.010   7.606
 1280TIP3    H227294   0.046   2.063   7.506
 1281TIP3   OH227295   0.249   3.323   7.971
 1281TIP3    H127296   0.219   3.285   7.887
 1281TIP3    H227297   0.268   3.245   8.023
 1282TIP3   OH227298   0.553   3.480   7.619
 1282TIP3    H127299   0.541   3.572   7.587
 1282TIP3    H227300   0.651   3.473   7.613
 1283TIP3   OH227301   0.963   3.584   7.885
 1283TIP3    H127302   0.962   3.574   7.983
 1283TIP3    H227303   1.052   3.618   7.870
 1284TIP3   OH227304   1.174   3.758   7.836
 1284TIP3    H127305   1.249   3.703   7.808
 1284TIP3    H227306   1.209   3.802   7.917
 1285TIP3   OH227307   1.700   1.948   7.745
 1285TIP3    H127308   1.628   1.992   7.698
 1285TIP3    H227309   1.704   1.861   7.699
 1286TIP3   OH227310   0.297   3.785   7.617
 1286TIP3    H127311   0.204   3.785   7.582
 1286TIP3    H227312   0.282   3.820   7.706
 1287TIP3   OH227313   0.531   3.727   7.495
 1287TIP3    H127314   0.441   3.741   7.533
 1287TIP3    H227315   0.535   3.798   7.428
 1288TIP3   OH227316   0.991   3.682   7.427
 1288TIP3    H127317   0.930   3.725   7.365
 1288TIP3    H227318   1.012   3.756   7.487
 1289TIP3   OH227319   1.207   3.556   7.574
 1289TIP3    H127320   1.142   3.595   7.512
 1289TIP3    H227321   1.285   3.611   7.551
 1290TIP3   OH227322   1.457   3.704   7.543
 1290TIP3    H127323   1.479   3.795   7.516
 1290TIP3    H227324   1.492   3.655   7.464
 1291TIP3   OH227325   0.262   3.643   7.280
 1291TIP3    H127326   0.226   3.595   7.358
 1291TIP3    H227327   0.337   3.585   7.255
 1292TIP3   OH227328   0.456   3.484   7.167
 1292TIP3    H127329   0.465   3.392   7.197
 1292TIP3    H227330   0.535   3.520   7.214
 1293TIP3   OH227331   0.674   3.512   7.316
 1293TIP3    H127332   0.728   3.434   7.295
 1293TIP3    H227333   0.699   3.526   7.410
 1294TIP3   OH227334   1.124   2.078   7.178
 1294TIP3    H127335   1.035   2.107   7.154
 1294TIP3    H227336   1.111   1.984   7.201
 1295TIP3   OH227337   1.569   1.913   7.161
 1295TIP3    H127338   1.630   1.976   7.115
 1295TIP3    H227339   1.482   1.936   7.118
 1296TIP3   OH227340   1.743   2.029   6.999
 1296TIP3    H127341   1.808   1.977   6.946
 1296TIP3    H227342   1.798   2.106   7.027
 1297TIP3   OH227343   0.334   1.956   6.931
 1297TIP3    H127344   0.253   1.965   6.879
 1297TIP3    H227345   0.351   1.860   6.924
 1298TIP3   OH227346   0.174   1.945   6.556
 1298TIP3    H127347   0.249   1.914   6.500
 1298TIP3    H227348   0.098   1.908   6.508
 1299TIP3   OH227349   0.744   1.936   6.909
 1299TIP3    H127350   0.819   1.994   6.928
 1299TIP3    H227351   0.708   1.922   6.998
 1300TIP3   OH227352   1.330   1.947   7.055
 1300TIP3    H127353   1.263   1.997   7.006
 1300TIP3    H227354   1.276   1.872   7.086
 1301TIP3   OH227355   1.386   1.959   6.633
 1301TIP3    H127356   1.417   2.022   6.700
 1301TIP3    H227357   1.353   1.887   6.693
 1302TIP3   OH227358   0.194   3.564   6.600
 1302TIP3    H127359   0.101   3.584   6.583
 1302TIP3    H227360   0.240   3.588   6.515
 1303TIP3   OH227361   1.710   3.589   6.743
 1303TIP3    H127362   1.687   3.504   6.698
 1303TIP3    H227363   1.695   3.656   6.672
 1304TIP3   OH227364   0.264   2.018   7.859
 1304TIP3    H127365   0.200   1.946   7.880
 1304TIP3    H227366   0.340   1.992   7.914
 1305TIP3   OH227367   0.466   1.955   8.070
 1305TIP3    H127368   0.552   1.920   8.037
 1305TIP3    H227369   0.431   1.873   8.111
 1306TIP3   OH227370   1.313   1.885   8.109
 1306TIP3    H127371   1.324   1.838   8.194
 1306TIP3    H227372   1.401   1.870   8.068
 1307TIP3   OH227373   1.620   3.503   7.940
 1307TIP3    H127374   1.542   3.493   7.880
 1307TIP3    H227375   1.611   3.598   7.965
 1308TIP3   OH227376   3.005   2.896   6.958
 1308TIP3    H127377   2.961   2.982   6.970
 1308TIP3    H227378   2.971   2.875   6.867
 1309TIP3   OH227379   2.947   2.801   7.295
 1309TIP3    H127380   2.966   2.775   7.388
 1309TIP3    H227381   2.860   2.761   7.284
 1310TIP3   OH227382   2.187   2.786   7.420
 1310TIP3    H127383   2.205   2.696   7.451
 1310TIP3    H227384   2.266   2.831   7.457
 1311TIP3   OH227385   3.272   3.058   7.123
 1311TIP3    H127386   3.271   2.994   7.199
 1311TIP3    H227387   3.303   3.138   7.170
 1312TIP3   OH227388   2.295   3.243   7.248
 1312TIP3    H127389   2.261   3.152   7.240
 1312TIP3    H227390   2.388   3.224   7.225
 1313TIP3   OH227391   1.949   2.538   6.802
 1313TIP3    H127392   1.914   2.613   6.853
 1313TIP3    H227393   1.903   2.553   6.716
 1314TIP3   OH227394   2.011   2.817   7.066
 1314TIP3    H127395   2.059   2.733   7.087
 1314TIP3    H227396   2.060   2.853   6.991
 1315TIP3   OH227397   3.033   3.627   7.100
 1315TIP3    H127398   3.108   3.571   7.070
 1315TIP3    H227399   2.995   3.564   7.164
 1316TIP3   OH227400   2.772   3.085   7.383
 1316TIP3    H127401   2.805   3.049   7.300
 1316TIP3    H227402   2.858   3.094   7.432
 1317TIP3   OH227403   3.634   2.213   7.335
 1317TIP3    H127404   3.643   2.273   7.412
 1317TIP3    H227405   3.728   2.209   7.308
 1318TIP3   OH227406   3.144   2.516   7.384
 1318TIP3    H127407   3.176   2.428   7.412
 1318TIP3    H227408   3.073   2.488   7.324
 1319TIP3   OH227409   2.430   2.278   7.049
 1319TIP3    H127410   2.450   2.361   7.001
 1319TIP3    H227411   2.375   2.232   6.983
 1320TIP3   OH227412   3.226   2.283   6.904
 1320TIP3    H127413   3.280   2.276   6.986
 1320TIP3    H227414   3.278   2.354   6.861
 1321TIP3   OH227415   2.092   2.563   7.134
 1321TIP3    H127416   2.135   2.499   7.193
 1321TIP3    H227417   2.112   2.523   7.047
 1322TIP3   OH227418   2.581   2.687   7.094
 1322TIP3    H127419   2.665   2.642   7.112
 1322TIP3    H227420   2.539   2.622   7.031
 1323TIP3   OH227421   3.663   2.333   7.596
 1323TIP3    H127422   3.631   2.420   7.560
 1323TIP3    H227423   3.676   2.360   7.688
 1324TIP3   OH227424   2.358   2.213   7.472
 1324TIP3    H127425   2.313   2.264   7.402
 1324TIP3    H227426   2.292   2.224   7.543
 1325TIP3   OH227427   3.031   3.151   6.820
 1325TIP3    H127428   3.006   3.161   6.724
 1325TIP3    H227429   2.994   3.236   6.855
 1326TIP3   OH227430   2.550   2.964   7.462
 1326TIP3    H127431   2.492   3.035   7.496
 1326TIP3    H227432   2.627   3.017   7.431
 1327TIP3   OH227433   3.376   2.266   7.132
 1327TIP3    H127434   3.379   2.216   7.214
 1327TIP3    H227435   3.471   2.281   7.123
 1328TIP3   OH227436   2.281   2.385   7.267
 1328TIP3    H127437   2.344   2.449   7.307
 1328TIP3    H227438   2.332   2.355   7.188
 1329TIP3   OH227439   2.417   3.182   7.561
 1329TIP3    H127440   2.393   3.221   7.475
 1329TIP3    H227441   2.328   3.179   7.604
 1330TIP3   OH227442   2.005   3.092   6.693
 1330TIP3    H127443   2.017   3.114   6.599
 1330TIP3    H227444   2.031   3.175   6.735
 1331TIP3   OH227445   3.380   3.299   7.337
 1331TIP3    H127446   3.286   3.319   7.360
 1331TIP3    H227447   3.405   3.386   7.303
 1332TIP3   OH227448   3.365   2.139   7.441
 1332TIP3    H127449   3.302   2.208   7.416
 1332TIP3    H227450   3.445   2.161   7.389
 1333TIP3   OH227451   2.678   1.937   7.213
 1333TIP3    H127452   2.654   1.844   7.209
 1333TIP3    H227453   2.592   1.976   7.246
 1334TIP3   OH227454   3.216   3.464   7.006
 1334TIP3    H127455   3.226   3.392   6.940
 1334TIP3    H227456   3.293   3.521   6.980
 1335TIP3   OH227457   3.342   3.280   6.856
 1335TIP3    H127458   3.366   3.196   6.811
 1335TIP3    H227459   3.391   3.274   6.938
 1336TIP3   OH227460   3.467   3.132   7.717
 1336TIP3    H127461   3.493   3.061   7.653
 1336TIP3    H227462   3.487   3.211   7.663
 1337TIP3   OH227463   2.940   2.829   6.692
 1337TIP3    H127464   2.872   2.887   6.652
 1337TIP3    H227465   2.999   2.815   6.615
 1338TIP3   OH227466   3.680   2.762   7.496
 1338TIP3    H127467   3.620   2.838   7.514
 1338TIP3    H227468   3.738   2.804   7.429
 1339TIP3   OH227469   3.259   2.781   6.816
 1339TIP3    H127470   3.210   2.704   6.784
 1339TIP3    H227471   3.343   2.741   6.848
 1340TIP3   OH227472   3.299   2.660   7.691
 1340TIP3    H127473   3.288   2.748   7.730
 1340TIP3    H227474   3.220   2.658   7.634
 1341TIP3   OH227475   2.419   2.877   6.959
 1341TIP3    H127476   2.435   2.862   6.864
 1341TIP3    H227477   2.484   2.817   7.000
 1342TIP3   OH227478   2.596   3.235   7.227
 1342TIP3    H127479   2.617   3.217   7.134
 1342TIP3    H227480   2.660   3.179   7.276
 1343TIP3   OH227481   2.459   2.745   7.339
 1343TIP3    H127482   2.493   2.746   7.247
 1343TIP3    H227483   2.499   2.827   7.377
 1344TIP3   OH227484   3.132   3.338   7.415
 1344TIP3    H127485   3.072   3.403   7.455
 1344TIP3    H227486   3.108   3.254   7.458
 1345TIP3   OH227487   2.554   3.178   7.786
 1345TIP3    H127488   2.474   3.215   7.828
 1345TIP3    H227489   2.519   3.159   7.695
 1346TIP3   OH227490   3.177   2.793   6.546
 1346TIP3    H127491   3.247   2.824   6.605
 1346TIP3    H227492   3.222   2.798   6.460
 1347TIP3   OH227493   2.305   2.824   7.675
 1347TIP3    H127494   2.323   2.912   7.711
 1347TIP3    H227495   2.228   2.798   7.728
 1348TIP3   OH227496   2.916   3.396   6.894
 1348TIP3    H127497   2.934   3.433   6.981
 1348TIP3    H227498   2.885   3.475   6.846
 1349TIP3   OH227499   2.399   3.383   7.879
 1349TIP3    H127500   2.376   3.426   7.793
 1349TIP3    H227501   2.309   3.354   7.906
 1350TIP3   OH227502   3.522   1.897   6.553
 1350TIP3    H127503   3.482   1.868   6.468
 1350TIP3    H227504   3.587   1.957   6.512
 1351TIP3   OH227505   2.339   2.801   6.692
 1351TIP3    H127506   2.288   2.881   6.714
 1351TIP3    H227507   2.281   2.730   6.722
 1352TIP3   OH227508   1.974   3.048   7.621
 1352TIP3    H127509   1.956   3.050   7.525
 1352TIP3    H227510   1.969   2.952   7.637
 1353TIP3   OH227511   1.937   3.323   7.293
 1353TIP3    H127512   2.033   3.327   7.311
 1353TIP3    H227513   1.908   3.411   7.322
 1354TIP3   OH227514   3.741   3.386   7.875
 1354TIP3    H127515   3.740   3.289   7.878
 1354TIP3    H227516   3.657   3.407   7.923
 1355TIP3   OH227517   2.841   3.317   7.774
 1355TIP3    H127518   2.879   3.384   7.834
 1355TIP3    H227519   2.814   3.247   7.835
 1356TIP3   OH227520   2.900   3.708   6.690
 1356TIP3    H127521   2.868   3.732   6.601
 1356TIP3    H227522   2.889   3.794   6.737
 1357TIP3   OH227523   2.245   3.589   6.913
 1357TIP3    H127524   2.286   3.571   7.002
 1357TIP3    H227525   2.169   3.527   6.919
 1358TIP3   OH227526   3.177   3.633   6.408
 1358TIP3    H127527   3.255   3.582   6.383
 1358TIP3    H227528   3.178   3.625   6.506
 1359TIP3   OH227529   3.174   3.642   6.702
 1359TIP3    H127530   3.080   3.654   6.729
 1359TIP3    H227531   3.215   3.607   6.782
 1360TIP3   OH227532   3.431   2.503   7.913
 1360TIP3    H127533   3.384   2.552   7.843
 1360TIP3    H227534   3.438   2.415   7.871
 1361TIP3   OH227535   2.188   3.192   7.696
 1361TIP3    H127536   2.181   3.174   7.790
 1361TIP3    H227537   2.104   3.149   7.664
 1362TIP3   OH227538   2.452   2.039   7.297
 1362TIP3    H127539   2.361   2.022   7.266
 1362TIP3    H227540   2.431   2.103   7.368
 1363TIP3   OH227541   2.949   2.001   7.625
 1363TIP3    H127542   2.978   1.952   7.705
 1363TIP3    H227543   2.852   2.004   7.636
 1364TIP3   OH227544   3.222   2.402   7.706
 1364TIP3    H127545   3.170   2.403   7.791
 1364TIP3    H227546   3.259   2.491   7.705
 1365TIP3   OH227547   2.458   2.498   7.437
 1365TIP3    H127548   2.377   2.499   7.491
 1365TIP3    H227549   2.457   2.589   7.398
 1366TIP3   OH227550   2.461   2.506   6.920
 1366TIP3    H127551   2.364   2.506   6.904
 1366TIP3    H227552   2.493   2.493   6.828
 1367TIP3   OH227553   3.050   2.587   6.794
 1367TIP3    H127554   3.020   2.673   6.758
 1367TIP3    H227555   3.102   2.547   6.720
 1368TIP3   OH227556   2.900   2.608   7.945
 1368TIP3    H127557   2.857   2.524   7.969
 1368TIP3    H227558   2.984   2.599   7.993
 1369TIP3   OH227559   3.130   2.495   7.039
 1369TIP3    H127560   3.125   2.483   6.942
 1369TIP3    H227561   3.108   2.406   7.066
 1370TIP3   OH227562   2.201   2.521   7.548
 1370TIP3    H127563   2.241   2.553   7.630
 1370TIP3    H227564   2.164   2.434   7.576
 1371TIP3   OH227565   1.902   2.238   7.042
 1371TIP3    H127566   1.973   2.240   7.111
 1371TIP3    H227567   1.949   2.246   6.957
 1372TIP3   OH227568   2.015   2.326   6.542
 1372TIP3    H127569   2.056   2.329   6.453
 1372TIP3    H227570   1.960   2.405   6.538
 1373TIP3   OH227571   3.017   2.698   7.530
 1373TIP3    H127572   3.072   2.625   7.492
 1373TIP3    H227573   2.956   2.646   7.589
 1374TIP3   OH227574   2.760   2.320   7.034
 1374TIP3    H127575   2.666   2.295   7.044
 1374TIP3    H227576   2.805   2.237   7.062
 1375TIP3   OH227577   2.192   2.456   6.897
 1375TIP3    H127578   2.110   2.472   6.846
 1375TIP3    H227579   2.211   2.363   6.873
 1376TIP3   OH227580   2.531   2.482   6.664
 1376TIP3    H127581   2.606   2.421   6.661
 1376TIP3    H227582   2.531   2.524   6.577
 1377TIP3   OH227583   3.133   2.232   7.332
 1377TIP3    H127584   3.080   2.221   7.413
 1377TIP3    H227585   3.133   2.143   7.294
 1378TIP3   OH227586   3.482   3.775   8.022
 1378TIP3    H127587   3.501   3.800   7.930
 1378TIP3    H227588   3.566   3.804   8.064
 1379TIP3   OH227589   2.249   2.973   7.951
 1379TIP3    H127590   2.294   3.010   8.029
 1379TIP3    H227591   2.155   2.979   7.980
 1380TIP3   OH227592   2.849   2.550   7.184
 1380TIP3    H127593   2.817   2.474   7.131
 1380TIP3    H227594   2.818   2.522   7.271
 1381TIP3   OH227595   2.276   2.188   6.846
 1381TIP3    H127596   2.232   2.108   6.884
 1381TIP3    H227597   2.310   2.155   6.761
 1382TIP3   OH227598   2.713   2.388   7.434
 1382TIP3    H127599   2.627   2.434   7.431
 1382TIP3    H227600   2.759   2.433   7.506
 1383TIP3   OH227601   2.748   3.044   6.639
 1383TIP3    H127602   2.677   2.978   6.621
 1383TIP3    H227603   2.731   3.065   6.733
 1384TIP3   OH227604   3.506   2.964   7.522
 1384TIP3    H127605   3.554   3.026   7.460
 1384TIP3    H227606   3.420   2.961   7.476
 1385TIP3   OH227607   3.113   2.307   6.447
 1385TIP3    H127608   3.098   2.246   6.373
 1385TIP3    H227609   3.148   2.385   6.404
 1386TIP3   OH227610   2.860   3.042   7.740
 1386TIP3    H127611   2.886   2.985   7.813
 1386TIP3    H227612   2.905   3.126   7.761
 1387TIP3   OH227613   3.247   2.517   6.613
 1387TIP3    H127614   3.342   2.500   6.622
 1387TIP3    H227615   3.243   2.577   6.536
 1388TIP3   OH227616   2.299   2.970   7.202
 1388TIP3    H127617   2.326   2.949   7.110
 1388TIP3    H227618   2.289   2.883   7.242
 1389TIP3   OH227619   2.962   3.171   6.547
 1389TIP3    H127620   2.912   3.252   6.524
 1389TIP3    H227621   2.890   3.106   6.557
 1390TIP3   OH227622   1.923   2.791   7.748
 1390TIP3    H127623   1.967   2.738   7.818
 1390TIP3    H227624   1.916   2.727   7.674
 1391TIP3   OH227625   2.621   2.741   7.915
 1391TIP3    H127626   2.579   2.697   7.838
 1391TIP3    H227627   2.707   2.696   7.918
 1392TIP3   OH227628   3.145   3.270   7.753
 1392TIP3    H127629   3.091   3.327   7.698
 1392TIP3    H227630   3.122   3.304   7.842
 1393TIP3   OH227631   3.672   2.487   6.560
 1393TIP3    H127632   3.624   2.517   6.481
 1393TIP3    H227633   3.764   2.490   6.530
 1394TIP3   OH227634   3.716   3.104   7.835
 1394TIP3    H127635   3.628   3.123   7.796
 1394TIP3    H227636   3.768   3.087   7.753
 1395TIP3   OH227637   3.259   2.868   7.322
 1395TIP3    H127638   3.187   2.831   7.375
 1395TIP3    H227639   3.304   2.787   7.291
 1396TIP3   OH227640   2.531   3.310   6.940
 1396TIP3    H127641   2.556   3.394   6.897
 1396TIP3    H227642   2.443   3.295   6.902
 1397TIP3   OH227643   2.686   3.072   6.911
 1397TIP3    H127644   2.641   3.159   6.912
 1397TIP3    H227645   2.624   3.018   6.961
 1398TIP3   OH227646   2.712   3.503   7.570
 1398TIP3    H127647   2.748   3.588   7.538
 1398TIP3    H227648   2.797   3.455   7.574
 1399TIP3   OH227649   2.516   3.569   6.816
 1399TIP3    H127650   2.425   3.581   6.850
 1399TIP3    H227651   2.557   3.653   6.847
 1400TIP3   OH227652   3.008   3.085   7.509
 1400TIP3    H127653   2.971   3.040   7.587
 1400TIP3    H227654   3.071   3.019   7.475
 1401TIP3   OH227655   3.310   3.536   7.757
 1401TIP3    H127656   3.227   3.491   7.733
 1401TIP3    H227657   3.325   3.593   7.679
 1402TIP3   OH227658   2.156   2.270   7.656
 1402TIP3    H127659   2.101   2.312   7.725
 1402TIP3    H227660   2.168   2.182   7.696
 1403TIP3   OH227661   3.380   3.040   6.738
 1403TIP3    H127662   3.426   2.954   6.736
 1403TIP3    H227663   3.429   3.082   6.665
 1404TIP3   OH227664   2.114   3.459   7.497
 1404TIP3    H127665   2.162   3.388   7.541
 1404TIP3    H227666   2.056   3.495   7.565
 1405TIP3   OH227667   2.550   3.253   6.510
 1405TIP3    H127668   2.626   3.206   6.547
 1405TIP3    H227669   2.568   3.346   6.536
 1406TIP3   OH227670   3.000   2.277   7.582
 1406TIP3    H127671   3.079   2.295   7.636
 1406TIP3    H227672   2.975   2.186   7.609
 1407TIP3   OH227673   3.059   2.222   6.686
 1407TIP3    H127674   3.053   2.237   6.589
 1407TIP3    H227675   3.151   2.252   6.696
 1408TIP3   OH227676   2.850   3.416   6.536
 1408TIP3    H127677   2.758   3.446   6.552
 1408TIP3    H227678   2.895   3.453   6.614
 1409TIP3   OH227679   2.804   2.378   6.768
 1409TIP3    H127680   2.870   2.449   6.769
 1409TIP3    H227681   2.776   2.372   6.862
 1410TIP3   OH227682   2.898   2.512   7.676
 1410TIP3    H127683   2.906   2.530   7.772
 1410TIP3    H227684   2.926   2.419   7.663
 1411TIP3   OH227685   2.873   2.084   6.812
 1411TIP3    H127686   2.837   2.113   6.898
 1411TIP3    H227687   2.912   2.170   6.781
 1412TIP3   OH227688   2.604   3.505   6.577
 1412TIP3    H127689   2.629   3.593   6.543
 1412TIP3    H227690   2.555   3.533   6.659
 1413TIP3   OH227691   2.435   2.161   6.579
 1413TIP3    H127692   2.419   2.171   6.484
 1413TIP3    H227693   2.530   2.149   6.587
 1414TIP3   OH227694   3.458   2.275   7.772
 1414TIP3    H127695   3.363   2.286   7.754
 1414TIP3    H227696   3.497   2.269   7.683
 1415TIP3   OH227697   3.325   2.642   7.181
 1415TIP3    H127698   3.272   2.561   7.195
 1415TIP3    H227699   3.410   2.607   7.217
 1416TIP3   OH227700   2.291   3.180   6.472
 1416TIP3    H127701   2.387   3.194   6.484
 1416TIP3    H227702   2.272   3.229   6.391
 1417TIP3   OH227703   3.442   3.594   7.341
 1417TIP3    H127704   3.449   3.658   7.266
 1417TIP3    H227705   3.537   3.588   7.367
 1418TIP3   OH227706   2.193   1.990   7.252
 1418TIP3    H127707   2.178   1.974   7.156
 1418TIP3    H227708   2.160   1.905   7.288
 1419TIP3   OH227709   2.069   3.383   6.844
 1419TIP3    H127710   1.981   3.423   6.828
 1419TIP3    H227711   2.114   3.405   6.762
 1420TIP3   OH227712   1.985   3.665   7.961
 1420TIP3    H127713   2.065   3.651   8.017
 1420TIP3    H227714   1.948   3.575   7.957
 1421TIP3   OH227715   2.490   3.487   8.139
 1421TIP3    H127716   2.587   3.493   8.133
 1421TIP3    H227717   2.463   3.449   8.054
 1422TIP3   OH227718   3.085   3.392   8.006
 1422TIP3    H127719   3.074   3.306   8.055
 1422TIP3    H227720   3.177   3.415   8.032
 1423TIP3   OH227721   1.991   2.993   8.044
 1423TIP3    H127722   1.947   2.908   8.058
 1423TIP3    H227723   1.939   3.034   7.971
 1424TIP3   OH227724   2.651   3.004   7.965
 1424TIP3    H127725   2.633   3.067   7.892
 1424TIP3    H227726   2.669   2.921   7.914
 1425TIP3   OH227727   3.236   3.001   7.770
 1425TIP3    H127728   3.325   3.044   7.769
 1425TIP3    H227729   3.182   3.083   7.767
 1426TIP3   OH227730   2.079   2.715   8.006
 1426TIP3    H127731   2.145   2.647   8.025
 1426TIP3    H227732   2.110   2.787   8.066
 1427TIP3   OH227733   2.577   2.862   6.544
 1427TIP3    H127734   2.496   2.826   6.587
 1427TIP3    H227735   2.548   2.886   6.454
 1428TIP3   OH227736   2.501   2.645   7.687
 1428TIP3    H127737   2.439   2.720   7.676
 1428TIP3    H227738   2.573   2.670   7.626
 1429TIP3   OH227739   3.009   2.911   8.084
 1429TIP3    H127740   3.061   2.858   8.021
 1429TIP3    H227741   2.988   2.846   8.154
 1430TIP3   OH227742   2.567   2.422   7.815
 1430TIP3    H127743   2.584   2.356   7.745
 1430TIP3    H227744   2.547   2.502   7.760
 1431TIP3   OH227745   2.598   2.220   7.602
 1431TIP3    H127746   2.652   2.258   7.529
 1431TIP3    H227747   2.509   2.223   7.561
 1432TIP3   OH227748   2.709   2.801   7.608
 1432TIP3    H127749   2.784   2.860   7.597
 1432TIP3    H227750   2.640   2.855   7.564
 1433TIP3   OH227751   3.124   2.536   8.125
 1433TIP3    H127752   3.148   2.447   8.160
 1433TIP3    H227753   3.211   2.575   8.110
 1434TIP3   OH227754   3.315   2.825   7.965
 1434TIP3    H127755   3.274   2.874   7.892
 1434TIP3    H227756   3.409   2.828   7.938
 1435TIP3   OH227757   2.375   2.530   8.030
 1435TIP3    H127758   2.309   2.461   8.006
 1435TIP3    H227759   2.445   2.506   7.967
 1436TIP3   OH227760   2.671   1.965   7.614
 1436TIP3    H127761   2.636   2.057   7.614
 1436TIP3    H227762   2.591   1.917   7.586
 1437TIP3   OH227763   2.747   2.390   8.034
 1437TIP3    H127764   2.676   2.359   8.095
 1437TIP3    H227765   2.702   2.379   7.948
 1438TIP3   OH227766   3.061   2.330   7.919
 1438TIP3    H127767   2.969   2.310   7.939
 1438TIP3    H227768   3.102   2.261   7.979
 1439TIP3   OH227769   3.143   2.139   8.082
 1439TIP3    H127770   3.170   2.047   8.101
 1439TIP3    H227771   3.157   2.184   8.169
 1440TIP3   OH227772   2.195   2.323   8.007
 1440TIP3    H127773   2.182   2.241   7.956
 1440TIP3    H227774   2.182   2.289   8.098
 1441TIP3   OH227775   2.636   1.900   7.880
 1441TIP3    H127776   2.708   1.836   7.894
 1441TIP3    H227777   2.638   1.905   7.783
 1442TIP3   OH227778   2.636   2.023   8.157
 1442TIP3    H127779   2.634   1.975   8.072
 1442TIP3    H227780   2.632   2.115   8.127
 1443TIP3   OH227781   2.645   3.756   6.493
 1443TIP3    H127782   2.718   3.809   6.457
 1443TIP3    H227783   2.575   3.768   6.428
 1444TIP3   OH227784   1.865   3.753   6.889
 1444TIP3    H127785   1.816   3.689   6.832
 1444TIP3    H227786   1.902   3.694   6.958
 1445TIP3   OH227787   1.968   3.567   7.061
 1445TIP3    H127788   1.911   3.497   7.097
 1445TIP3    H227789   2.037   3.576   7.131
 1446TIP3   OH227790   3.722   3.633   7.334
 1446TIP3    H127791   3.739   3.637   7.429
 1446TIP3    H227792   3.755   3.719   7.307
 1447TIP3   OH227793   3.656   3.586   7.646
 1447TIP3    H127794   3.635   3.499   7.605
 1447TIP3    H227795   3.694   3.557   7.731
 1448TIP3   OH227796   3.544   3.169   8.143
 1448TIP3    H127797   3.455   3.174   8.184
 1448TIP3    H227798   3.587   3.251   8.176
 1449TIP3   OH227799   3.634   2.966   6.655
 1449TIP3    H127800   3.697   3.039   6.651
 1449TIP3    H227801   3.659   2.918   6.736
 1450TIP3   OH227802   3.685   2.808   6.890
 1450TIP3    H127803   3.607   2.760   6.923
 1450TIP3    H227804   3.750   2.798   6.963
 1451TIP3   OH227805   3.646   3.081   7.332
 1451TIP3    H127806   3.718   3.019   7.310
 1451TIP3    H227807   3.679   3.167   7.298
 1452TIP3   OH227808   3.517   3.365   7.574
 1452TIP3    H127809   3.447   3.406   7.627
 1452TIP3    H227810   3.469   3.338   7.492
 1453TIP3   OH227811   3.729   2.828   6.449
 1453TIP3    H127812   3.648   2.795   6.402
 1453TIP3    H227813   3.687   2.865   6.528
 1454TIP3   OH227814   3.463   2.665   6.938
 1454TIP3    H127815   3.469   2.570   6.913
 1454TIP3    H227816   3.434   2.657   7.031
 1455TIP3   OH227817   1.972   2.896   7.319
 1455TIP3    H127818   1.979   2.871   7.223
 1455TIP3    H227819   2.061   2.866   7.350
 1456TIP3   OH227820   3.572   2.853   7.883
 1456TIP3    H127821   3.637   2.780   7.883
 1456TIP3    H227822   3.625   2.929   7.848
 1457TIP3   OH227823   3.671   2.623   7.978
 1457TIP3    H127824   3.581   2.601   7.948
 1457TIP3    H227825   3.719   2.538   7.959
 1458TIP3   OH227826   3.450   2.425   6.809
 1458TIP3    H127827   3.473   2.331   6.822
 1458TIP3    H227828   3.516   2.445   6.740
 1459TIP3   OH227829   3.511   2.498   7.304
 1459TIP3    H127830   3.609   2.504   7.301
 1459TIP3    H227831   3.498   2.482   7.398
 1460TIP3   OH227832   3.529   2.552   7.579
 1460TIP3    H127833   3.441   2.582   7.607
 1460TIP3    H227834   3.572   2.637   7.554
 1461TIP3   OH227835   1.954   2.394   7.923
 1461TIP3    H127836   2.032   2.368   7.975
 1461TIP3    H227837   1.901   2.311   7.923
 1462TIP3   OH227838   3.725   1.989   8.084
 1462TIP3    H127839   3.766   1.918   8.032
 1462TIP3    H227840   3.722   2.063   8.017
 1463TIP3   OH227841   3.512   2.171   6.747
 1463TIP3    H127842   3.522   2.134   6.838
 1463TIP3    H227843   3.504   2.089   6.696
 1464TIP3   OH227844   2.047   2.231   7.262
 1464TIP3    H127845   2.084   2.139   7.267
 1464TIP3    H227846   2.126   2.286   7.268
 1465TIP3   OH227847   1.906   2.526   7.340
 1465TIP3    H127848   1.961   2.489   7.269
 1465TIP3    H227849   1.944   2.615   7.347
 1466TIP3   OH227850   3.668   2.196   7.930
 1466TIP3    H127851   3.584   2.239   7.956
 1466TIP3    H227852   3.636   2.140   7.857
 1467TIP3   OH227853   1.918   2.182   6.757
 1467TIP3    H127854   1.829   2.206   6.728
 1467TIP3    H227855   1.970   2.230   6.689
 1468TIP3   OH227856   3.401   3.634   6.944
 1468TIP3    H127857   3.461   3.613   6.868
 1468TIP3    H227858   3.456   3.688   7.005
 1469TIP3   OH227859   1.920   2.010   7.572
 1469TIP3    H127860   1.857   1.973   7.637
 1469TIP3    H227861   1.870   2.084   7.534
 1470TIP3   OH227862   2.141   3.320   7.946
 1470TIP3    H127863   2.059   3.367   7.923
 1470TIP3    H227864   2.118   3.285   8.033
 1471TIP3   OH227865   2.441   3.512   7.641
 1471TIP3    H127866   2.410   3.596   7.600
 1471TIP3    H227867   2.499   3.483   7.569
 1472TIP3   OH227868   2.814   3.567   7.870
 1472TIP3    H127869   2.825   3.561   7.967
 1472TIP3    H227870   2.900   3.607   7.848
 1473TIP3   OH227871   3.040   3.744   7.848
 1473TIP3    H127872   3.122   3.699   7.822
 1473TIP3    H227873   3.069   3.782   7.933
 1474TIP3   OH227874   3.607   1.938   7.749
 1474TIP3    H127875   3.525   1.968   7.710
 1474TIP3    H227876   3.618   1.849   7.706
 1475TIP3   OH227877   2.160   3.790   7.585
 1475TIP3    H127878   2.080   3.842   7.563
 1475TIP3    H227879   2.151   3.784   7.681
 1476TIP3   OH227880   2.390   3.724   7.479
 1476TIP3    H127881   2.294   3.739   7.498
 1476TIP3    H227882   2.408   3.793   7.412
 1477TIP3   OH227883   2.855   3.683   7.430
 1477TIP3    H127884   2.822   3.732   7.352
 1477TIP3    H227885   2.880   3.757   7.489
 1478TIP3   OH227886   3.063   3.567   7.567
 1478TIP3    H127887   3.003   3.612   7.504
 1478TIP3    H227888   3.149   3.605   7.540
 1479TIP3   OH227889   3.331   3.700   7.554
 1479TIP3    H127890   3.360   3.790   7.536
 1479TIP3    H227891   3.366   3.653   7.473
 1480TIP3   OH227892   2.129   3.611   7.270
 1480TIP3    H127893   2.121   3.561   7.355
 1480TIP3    H227894   2.220   3.586   7.244
 1481TIP3   OH227895   2.353   3.511   7.149
 1481TIP3    H127896   2.339   3.420   7.183
 1481TIP3    H227897   2.437   3.528   7.197
 1482TIP3   OH227898   2.568   3.510   7.304
 1482TIP3    H127899   2.605   3.419   7.295
 1482TIP3    H227900   2.609   3.541   7.385
 1483TIP3   OH227901   2.880   2.085   7.090
 1483TIP3    H127902   2.811   2.075   7.158
 1483TIP3    H227903   2.922   1.998   7.098
 1484TIP3   OH227904   3.470   1.924   7.173
 1484TIP3    H127905   3.524   1.980   7.112
 1484TIP3    H227906   3.384   1.961   7.152
 1485TIP3   OH227907   3.588   2.070   6.983
 1485TIP3    H127908   3.633   1.990   6.947
 1485TIP3    H227909   3.665   2.126   7.004
 1486TIP3   OH227910   2.143   1.964   6.970
 1486TIP3    H127911   2.070   1.938   6.911
 1486TIP3    H227912   2.207   1.891   6.954
 1487TIP3   OH227913   2.042   2.006   6.533
 1487TIP3    H127914   2.104   2.066   6.490
 1487TIP3    H227915   2.021   2.053   6.616
 1488TIP3   OH227916   2.580   1.918   6.928
 1488TIP3    H127917   2.653   1.960   6.881
 1488TIP3    H227918   2.596   1.941   7.021
 1489TIP3   OH227919   3.172   1.931   7.021
 1489TIP3    H127920   3.246   1.871   6.994
 1489TIP3    H227921   3.117   1.867   7.072
 1490TIP3   OH227922   3.257   1.994   6.692
 1490TIP3    H127923   3.323   1.998   6.621
 1490TIP3    H227924   3.249   1.897   6.703
 1491TIP3   OH227925   2.751   2.127   6.574
 1491TIP3    H127926   2.790   2.101   6.660
 1491TIP3    H227927   2.765   2.223   6.579
 1492TIP3   OH227928   2.921   3.755   6.413
 1492TIP3    H127929   3.006   3.709   6.425
 1492TIP3    H227930   2.882   3.696   6.347
 1493TIP3   OH227931   3.565   3.588   6.735
 1493TIP3    H127932   3.603   3.522   6.674
 1493TIP3    H227933   3.546   3.662   6.673
 1494TIP3   OH227934   2.131   2.029   7.868
 1494TIP3    H127935   2.072   1.952   7.883
 1494TIP3    H227936   2.201   2.014   7.936
 1495TIP3   OH227937   2.336   1.967   8.067
 1495TIP3    H127938   2.414   1.915   8.041
 1495TIP3    H227939   2.289   1.901   8.123
 1496TIP3   OH227940   3.199   1.875   8.124
 1496TIP3    H127941   3.220   1.832   8.210
 1496TIP3    H227942   3.284   1.868   8.075
 1497TIP3   OH227943   3.511   3.506   7.941
 1497TIP3    H127944   3.432   3.498   7.882
 1497TIP3    H227945   3.506   3.599   7.969
 1498TIP3   OH227946   4.979   2.896   6.928
 1498TIP3    H127947   4.964   2.992   6.946
 1498TIP3    H227948   4.909   2.879   6.862
 1499TIP3   OH227949   4.850   2.790   7.288
 1499TIP3    H127950   4.870   2.736   7.367
 1499TIP3    H227951   4.782   2.737   7.242
 1500TIP3   OH227952   4.071   2.797   7.415
 1500TIP3    H127953   4.060   2.711   7.459
 1500TIP3    H227954   4.137   2.837   7.473
 1501TIP3   OH227955   5.178   3.096   7.122
 1501TIP3    H127956   5.184   3.024   7.187
 1501TIP3    H227957   5.189   3.174   7.178
 1502TIP3   OH227958   4.170   3.233   7.247
 1502TIP3    H127959   4.143   3.139   7.241
 1502TIP3    H227960   4.265   3.221   7.232
 1503TIP3   OH227961   3.824   2.585   6.808
 1503TIP3    H127962   3.782   2.672   6.824
 1503TIP3    H227963   3.770   2.550   6.736
 1504TIP3   OH227964   3.886   2.808   7.071
 1504TIP3    H127965   3.939   2.728   7.092
 1504TIP3    H227966   3.955   2.873   7.050
 1505TIP3   OH227967   4.898   3.627   7.152
 1505TIP3    H127968   4.967   3.604   7.088
 1505TIP3    H227969   4.890   3.543   7.198
 1506TIP3   OH227970   4.654   3.055   7.373
 1506TIP3    H127971   4.685   3.006   7.295
 1506TIP3    H227972   4.740   3.077   7.415
 1507TIP3   OH227973   5.530   2.208   7.332
 1507TIP3    H127974   5.544   2.246   7.421
 1507TIP3    H227975   5.620   2.218   7.297
 1508TIP3   OH227976   5.045   2.499   7.373
 1508TIP3    H127977   5.056   2.404   7.390
 1508TIP3    H227978   5.025   2.494   7.277
 1509TIP3   OH227979   4.291   2.295   7.060
 1509TIP3    H127980   4.322   2.368   7.003
 1509TIP3    H227981   4.274   2.228   6.990
 1510TIP3   OH227982   5.086   2.298   6.928
 1510TIP3    H127983   5.137   2.278   7.009
 1510TIP3    H227984   5.133   2.376   6.895
 1511TIP3   OH227985   3.991   2.581   7.167
 1511TIP3    H127986   4.050   2.527   7.222
 1511TIP3    H227987   4.002   2.536   7.081
 1512TIP3   OH227988   4.447   2.705   7.095
 1512TIP3    H127989   4.532   2.669   7.130
 1512TIP3    H227990   4.423   2.634   7.032
 1513TIP3   OH227991   5.550   2.328   7.591
 1513TIP3    H127992   5.511   2.413   7.558
 1513TIP3    H227993   5.587   2.358   7.675
 1514TIP3   OH227994   4.233   2.193   7.480
 1514TIP3    H127995   4.185   2.245   7.412
 1514TIP3    H227996   4.170   2.201   7.554
 1515TIP3   OH227997   4.912   3.164   6.842
 1515TIP3    H127998   4.911   3.152   6.745
 1515TIP3    H227999   4.892   3.259   6.852
 1516TIP3   OH228000   4.421   2.956   7.468
 1516TIP3    H128001   4.363   3.030   7.495
 1516TIP3    H228002   4.502   3.004   7.438
 1517TIP3   OH228003   5.270   2.304   7.146
 1517TIP3    H128004   5.304   2.215   7.163
 1517TIP3    H228005   5.328   2.357   7.206
 1518TIP3   OH228006   4.169   2.385   7.277
 1518TIP3    H128007   4.238   2.442   7.320
 1518TIP3    H228008   4.216   2.357   7.195
 1519TIP3   OH228009   4.293   3.180   7.563
 1519TIP3    H128010   4.285   3.267   7.522
 1519TIP3    H228011   4.207   3.174   7.611
 1520TIP3   OH228012   3.892   3.139   6.582
 1520TIP3    H128013   3.808   3.190   6.565
 1520TIP3    H228014   3.924   3.183   6.662
 1521TIP3   OH228015   5.273   3.272   7.373
 1521TIP3    H128016   5.180   3.303   7.384
 1521TIP3    H228017   5.300   3.338   7.308
 1522TIP3   OH228018   5.258   2.134   7.449
 1522TIP3    H128019   5.184   2.171   7.396
 1522TIP3    H228020   5.335   2.160   7.397
 1523TIP3   OH228021   4.552   1.923   7.241
 1523TIP3    H128022   4.515   1.849   7.192
 1523TIP3    H228023   4.469   1.974   7.262
 1524TIP3   OH228024   5.107   3.472   7.015
 1524TIP3    H128025   5.112   3.389   6.963
 1524TIP3    H228026   5.184   3.518   6.976
 1525TIP3   OH228027   5.212   3.255   6.845
 1525TIP3    H128028   5.206   3.196   6.768
 1525TIP3    H228029   5.196   3.192   6.918
 1526TIP3   OH228030   5.362   3.115   7.703
 1526TIP3    H128031   5.379   3.040   7.642
 1526TIP3    H228032   5.386   3.190   7.645
 1527TIP3   OH228033   4.840   2.823   6.686
 1527TIP3    H128034   4.776   2.874   6.632
 1527TIP3    H228035   4.910   2.807   6.620
 1528TIP3   OH228036   4.792   2.684   6.405
 1528TIP3    H128037   4.884   2.668   6.428
 1528TIP3    H228038   4.792   2.683   6.308
 1529TIP3   OH228039   5.579   2.765   7.476
 1529TIP3    H128040   5.504   2.828   7.478
 1529TIP3    H228041   5.640   2.816   7.419
 1530TIP3   OH228042   5.191   2.812   6.784
 1530TIP3    H128043   5.120   2.851   6.840
 1530TIP3    H228044   5.250   2.778   6.856
 1531TIP3   OH228045   5.160   2.672   7.696
 1531TIP3    H128046   5.161   2.767   7.716
 1531TIP3    H228047   5.086   2.671   7.633
 1532TIP3   OH228048   4.312   2.891   6.965
 1532TIP3    H128049   4.300   2.844   6.879
 1532TIP3    H228050   4.368   2.828   7.014
 1533TIP3   OH228051   4.459   3.218   7.231
 1533TIP3    H128052   4.477   3.197   7.138
 1533TIP3    H228053   4.531   3.172   7.279
 1534TIP3   OH228054   4.344   2.741   7.339
 1534TIP3    H128055   4.373   2.749   7.246
 1534TIP3    H228056   4.377   2.825   7.379
 1535TIP3   OH228057   5.018   3.346   7.407
 1535TIP3    H128058   4.982   3.415   7.466
 1535TIP3    H228059   4.981   3.265   7.448
 1536TIP3   OH228060   4.449   3.197   7.779
 1536TIP3    H128061   4.382   3.252   7.826
 1536TIP3    H228062   4.402   3.181   7.693
 1537TIP3   OH228063   5.073   2.757   6.541
 1537TIP3    H128064   5.115   2.770   6.630
 1537TIP3    H228065   5.109   2.832   6.490
 1538TIP3   OH228066   4.158   2.825   7.686
 1538TIP3    H128067   4.184   2.912   7.719
 1538TIP3    H228068   4.090   2.803   7.751
 1539TIP3   OH228069   4.278   3.378   7.884
 1539TIP3    H128070   4.262   3.421   7.797
 1539TIP3    H228071   4.189   3.341   7.901
 1540TIP3   OH228072   5.425   1.904   6.559
 1540TIP3    H128073   5.328   1.900   6.585
 1540TIP3    H228074   5.423   1.984   6.506
 1541TIP3   OH228075   4.207   2.790   6.733
 1541TIP3    H128076   4.152   2.869   6.722
 1541TIP3    H228077   4.151   2.719   6.699
 1542TIP3   OH228078   5.587   3.401   6.369
 1542TIP3    H128079   5.540   3.400   6.284
 1542TIP3    H228080   5.655   3.333   6.351
 1543TIP3   OH228081   3.851   3.049   7.616
 1543TIP3    H128082   3.822   3.039   7.524
 1543TIP3    H228083   3.888   2.959   7.630
 1544TIP3   OH228084   3.790   3.315   7.281
 1544TIP3    H128085   3.883   3.300   7.257
 1544TIP3    H228086   3.799   3.386   7.346
 1545TIP3   OH228087   5.624   3.377   7.877
 1545TIP3    H128088   5.606   3.285   7.855
 1545TIP3    H228089   5.540   3.403   7.921
 1546TIP3   OH228090   4.707   3.320   7.770
 1546TIP3    H128091   4.726   3.394   7.832
 1546TIP3    H228092   4.613   3.298   7.788
 1547TIP3   OH228093   4.139   3.583   6.911
 1547TIP3    H128094   4.159   3.552   7.002
 1547TIP3    H228095   4.056   3.536   6.890
 1548TIP3   OH228096   5.322   2.511   7.911
 1548TIP3    H128097   5.276   2.550   7.834
 1548TIP3    H228098   5.329   2.418   7.881
 1549TIP3   OH228099   4.069   3.169   7.703
 1549TIP3    H128100   4.077   3.132   7.794
 1549TIP3    H228101   3.979   3.139   7.678
 1550TIP3   OH228102   4.330   2.037   7.302
 1550TIP3    H128103   4.241   2.024   7.265
 1550TIP3    H228104   4.310   2.091   7.381
 1551TIP3   OH228105   4.843   1.988   7.612
 1551TIP3    H128106   4.882   1.946   7.693
 1551TIP3    H228107   4.749   1.994   7.639
 1552TIP3   OH228108   5.108   2.392   7.716
 1552TIP3    H128109   5.056   2.349   7.788
 1552TIP3    H228110   5.096   2.484   7.744
 1553TIP3   OH228111   4.348   2.498   7.441
 1553TIP3    H128112   4.268   2.506   7.496
 1553TIP3    H228113   4.353   2.590   7.405
 1554TIP3   OH228114   4.338   2.508   6.916
 1554TIP3    H128115   4.243   2.506   6.895
 1554TIP3    H228116   4.379   2.520   6.826
 1555TIP3   OH228117   4.889   2.586   6.800
 1555TIP3    H128118   4.868   2.675   6.764
 1555TIP3    H228119   4.954   2.553   6.735
 1556TIP3   OH228120   4.774   2.613   7.942
 1556TIP3    H128121   4.744   2.526   7.974
 1556TIP3    H228122   4.860   2.618   7.989
 1557TIP3   OH228123   5.006   2.549   7.098
 1557TIP3    H128124   4.987   2.632   7.050
 1557TIP3    H228125   4.990   2.484   7.027
 1558TIP3   OH228126   4.093   2.518   7.570
 1558TIP3    H128127   4.124   2.548   7.657
 1558TIP3    H228128   4.068   2.426   7.587
 1559TIP3   OH228129   3.812   2.238   7.026
 1559TIP3    H128130   3.891   2.228   7.081
 1559TIP3    H228131   3.844   2.284   6.947
 1560TIP3   OH228132   4.912   2.680   7.521
 1560TIP3    H128133   4.965   2.608   7.479
 1560TIP3    H228134   4.849   2.629   7.578
 1561TIP3   OH228135   4.611   2.290   7.025
 1561TIP3    H128136   4.516   2.300   7.041
 1561TIP3    H228137   4.639   2.239   7.102
 1562TIP3   OH228138   4.026   2.450   6.941
 1562TIP3    H128139   3.962   2.486   6.875
 1562TIP3    H228140   4.066   2.375   6.895
 1563TIP3   OH228141   4.451   2.500   6.675
 1563TIP3    H128142   4.531   2.447   6.679
 1563TIP3    H228143   4.413   2.475   6.589
 1564TIP3   OH228144   5.028   2.214   7.323
 1564TIP3    H128145   4.955   2.172   7.373
 1564TIP3    H228146   5.026   2.165   7.239
 1565TIP3   OH228147   5.326   3.752   8.015
 1565TIP3    H128148   5.364   3.796   7.936
 1565TIP3    H228149   5.400   3.761   8.078
 1566TIP3   OH228150   4.110   3.024   7.931
 1566TIP3    H128151   4.182   3.038   7.997
 1566TIP3    H228152   4.032   3.017   7.989
 1567TIP3   OH228153   4.690   2.591   7.191
 1567TIP3    H128154   4.758   2.546   7.139
 1567TIP3    H228155   4.687   2.534   7.269
 1568TIP3   OH228156   4.266   2.154   6.840
 1568TIP3    H128157   4.235   2.062   6.835
 1568TIP3    H228158   4.322   2.160   6.760
 1569TIP3   OH228159   4.585   2.369   7.423
 1569TIP3    H128160   4.504   2.426   7.424
 1569TIP3    H228161   4.645   2.417   7.482
 1570TIP3   OH228162   4.620   2.973   6.633
 1570TIP3    H128163   4.590   2.885   6.658
 1570TIP3    H228164   4.593   3.024   6.712
 1571TIP3   OH228165   5.386   2.958   7.495
 1571TIP3    H128166   5.437   3.012   7.430
 1571TIP3    H228167   5.298   2.963   7.454
 1572TIP3   OH228168   4.747   3.046   7.715
 1572TIP3    H128169   4.752   3.021   7.808
 1572TIP3    H228170   4.729   3.142   7.724
 1573TIP3   OH228171   5.057   2.487   6.616
 1573TIP3    H128172   5.142   2.481   6.663
 1573TIP3    H228173   5.073   2.562   6.555
 1574TIP3   OH228174   4.169   2.965   7.213
 1574TIP3    H128175   4.224   2.943   7.134
 1574TIP3    H228176   4.163   2.882   7.263
 1575TIP3   OH228177   4.829   3.173   6.579
 1575TIP3    H128178   4.785   3.261   6.592
 1575TIP3    H228179   4.756   3.110   6.589
 1576TIP3   OH228180   3.831   2.795   7.729
 1576TIP3    H128181   3.848   2.729   7.798
 1576TIP3    H228182   3.793   2.744   7.655
 1577TIP3   OH228183   4.542   2.753   7.904
 1577TIP3    H128184   4.501   2.694   7.839
 1577TIP3    H228185   4.632   2.713   7.910
 1578TIP3   OH228186   5.042   3.286   7.768
 1578TIP3    H128187   4.965   3.309   7.714
 1578TIP3    H228188   5.018   3.329   7.852
 1579TIP3   OH228189   5.571   2.482   6.625
 1579TIP3    H128190   5.524   2.479   6.539
 1579TIP3    H228191   5.628   2.560   6.615
 1580TIP3   OH228192   5.599   3.096   7.843
 1580TIP3    H128193   5.503   3.102   7.824
 1580TIP3    H228194   5.637   3.095   7.752
 1581TIP3   OH228195   5.413   3.360   6.584
 1581TIP3    H128196   5.353   3.286   6.601
 1581TIP3    H228197   5.430   3.355   6.488
 1582TIP3   OH228198   5.163   2.881   7.312
 1582TIP3    H128199   5.071   2.867   7.282
 1582TIP3    H228200   5.210   2.809   7.267
 1583TIP3   OH228201   4.394   3.334   6.908
 1583TIP3    H128202   4.422   3.423   6.878
 1583TIP3    H228203   4.298   3.339   6.893
 1584TIP3   OH228204   4.522   3.070   6.871
 1584TIP3    H128205   4.484   3.160   6.879
 1584TIP3    H228206   4.457   3.014   6.917
 1585TIP3   OH228207   4.571   3.482   7.577
 1585TIP3    H128208   4.629   3.551   7.540
 1585TIP3    H228209   4.632   3.439   7.639
 1586TIP3   OH228210   4.397   3.591   6.822
 1586TIP3    H128211   4.306   3.591   6.859
 1586TIP3    H228212   4.424   3.683   6.839
 1587TIP3   OH228213   4.900   3.089   7.496
 1587TIP3    H128214   4.858   3.061   7.581
 1587TIP3    H228215   4.934   3.004   7.462
 1588TIP3   OH228216   5.225   3.552   7.737
 1588TIP3    H128217   5.140   3.511   7.713
 1588TIP3    H228218   5.238   3.613   7.660
 1589TIP3   OH228219   4.050   2.258   7.666
 1589TIP3    H128220   3.972   2.300   7.702
 1589TIP3    H228221   4.052   2.174   7.715
 1590TIP3   OH228222   5.216   3.050   6.649
 1590TIP3    H128223   5.206   2.964   6.693
 1590TIP3    H228224   5.310   3.048   6.619
 1591TIP3   OH228225   3.976   3.443   7.507
 1591TIP3    H128226   4.044   3.374   7.515
 1591TIP3    H228227   3.978   3.479   7.596
 1592TIP3   OH228228   4.883   2.258   7.615
 1592TIP3    H128229   4.979   2.268   7.627
 1592TIP3    H228230   4.871   2.162   7.622
 1593TIP3   OH228231   4.976   2.212   6.696
 1593TIP3    H128232   4.971   2.308   6.681
 1593TIP3    H228233   5.030   2.212   6.779
 1594TIP3   OH228234   4.724   3.429   6.614
 1594TIP3    H128235   4.635   3.470   6.607
 1594TIP3    H228236   4.759   3.442   6.523
 1595TIP3   OH228237   4.722   2.366   6.787
 1595TIP3    H128238   4.752   2.459   6.795
 1595TIP3    H228239   4.687   2.344   6.876
 1596TIP3   OH228240   4.780   2.510   7.678
 1596TIP3    H128241   4.776   2.534   7.773
 1596TIP3    H228242   4.813   2.418   7.675
 1597TIP3   OH228243   4.750   2.051   6.874
 1597TIP3    H128244   4.715   2.112   6.943
 1597TIP3    H228245   4.817   2.109   6.833
 1598TIP3   OH228246   4.482   3.564   6.558
 1598TIP3    H128247   4.475   3.647   6.509
 1598TIP3    H228248   4.433   3.581   6.641
 1599TIP3   OH228249   4.379   2.204   6.603
 1599TIP3    H128250   4.317   2.259   6.551
 1599TIP3    H228251   4.439   2.176   6.533
 1600TIP3   OH228252   5.346   2.271   7.777
 1600TIP3    H128253   5.252   2.283   7.754
 1600TIP3    H228254   5.389   2.272   7.690
 1601TIP3   OH228255   5.245   2.660   7.161
 1601TIP3    H128256   5.167   2.603   7.169
 1601TIP3    H228257   5.310   2.608   7.214
 1602TIP3   OH228258   5.317   3.567   7.329
 1602TIP3    H128259   5.329   3.616   7.246
 1602TIP3    H228260   5.410   3.554   7.356
 1603TIP3   OH228261   4.074   1.987   7.239
 1603TIP3    H128262   4.072   1.984   7.141
 1603TIP3    H228263   4.037   1.899   7.259
 1604TIP3   OH228264   3.977   3.351   6.802
 1604TIP3    H128265   3.904   3.380   6.856
 1604TIP3    H228266   3.976   3.422   6.734
 1605TIP3   OH228267   3.865   3.672   7.963
 1605TIP3    H128268   3.934   3.659   8.032
 1605TIP3    H228269   3.832   3.582   7.955
 1606TIP3   OH228270   4.396   3.525   8.134
 1606TIP3    H128271   4.483   3.482   8.140
 1606TIP3    H228272   4.360   3.479   8.057
 1607TIP3   OH228273   4.779   3.443   6.294
 1607TIP3    H128274   4.738   3.375   6.238
 1607TIP3    H228275   4.861   3.463   6.246
 1608TIP3   OH228276   4.981   3.404   8.003
 1608TIP3    H128277   4.960   3.317   8.045
 1608TIP3    H228278   5.072   3.415   8.039
 1609TIP3   OH228279   3.856   3.015   8.052
 1609TIP3    H128280   3.820   2.926   8.056
 1609TIP3    H228281   3.810   3.051   7.973
 1610TIP3   OH228282   4.541   3.012   7.961
 1610TIP3    H128283   4.517   3.075   7.889
 1610TIP3    H228284   4.547   2.926   7.913
 1611TIP3   OH228285   5.110   3.005   7.760
 1611TIP3    H128286   5.198   3.048   7.758
 1611TIP3    H228287   5.054   3.085   7.761
 1612TIP3   OH228288   3.987   2.710   8.001
 1612TIP3    H128289   4.039   2.636   8.039
 1612TIP3    H228290   4.013   2.781   8.064
 1613TIP3   OH228291   4.351   2.639   7.683
 1613TIP3    H128292   4.292   2.718   7.678
 1613TIP3    H228293   4.427   2.673   7.631
 1614TIP3   OH228294   4.485   2.707   6.364
 1614TIP3    H128295   4.474   2.621   6.318
 1614TIP3    H228296   4.569   2.685   6.408
 1615TIP3   OH228297   4.888   2.913   8.074
 1615TIP3    H128298   4.941   2.864   8.009
 1615TIP3    H228299   4.858   2.844   8.136
 1616TIP3   OH228300   4.476   2.418   7.810
 1616TIP3    H128301   4.473   2.351   7.739
 1616TIP3    H228302   4.446   2.497   7.760
 1617TIP3   OH228303   4.476   2.212   7.604
 1617TIP3    H128304   4.533   2.253   7.534
 1617TIP3    H228305   4.388   2.219   7.560
 1618TIP3   OH228306   4.578   2.787   7.604
 1618TIP3    H128307   4.660   2.830   7.577
 1618TIP3    H228308   4.514   2.851   7.567
 1619TIP3   OH228309   4.990   2.552   8.127
 1619TIP3    H128310   5.005   2.469   8.178
 1619TIP3    H228311   5.081   2.578   8.106
 1620TIP3   OH228312   5.181   2.850   7.969
 1620TIP3    H128313   5.145   2.900   7.893
 1620TIP3    H228314   5.268   2.821   7.935
 1621TIP3   OH228315   4.252   2.491   8.032
 1621TIP3    H128316   4.184   2.438   7.984
 1621TIP3    H228317   4.318   2.504   7.963
 1622TIP3   OH228318   4.558   1.957   7.593
 1622TIP3    H128319   4.524   2.049   7.607
 1622TIP3    H228320   4.478   1.909   7.570
 1623TIP3   OH228321   4.650   2.364   8.024
 1623TIP3    H128322   4.579   2.361   8.091
 1623TIP3    H228323   4.595   2.365   7.943
 1624TIP3   OH228324   4.939   2.334   7.915
 1624TIP3    H128325   4.843   2.325   7.925
 1624TIP3    H228326   4.964   2.268   7.983
 1625TIP3   OH228327   5.005   2.146   8.092
 1625TIP3    H128328   5.055   2.063   8.108
 1625TIP3    H228329   5.029   2.203   8.169
 1626TIP3   OH228330   4.053   2.297   7.989
 1626TIP3    H128331   4.044   2.211   7.943
 1626TIP3    H228332   4.046   2.271   8.084
 1627TIP3   OH228333   4.512   1.916   7.861
 1627TIP3    H128334   4.597   1.872   7.881
 1627TIP3    H228335   4.515   1.907   7.763
 1628TIP3   OH228336   4.526   2.024   8.172
 1628TIP3    H128337   4.515   1.973   8.089
 1628TIP3    H228338   4.528   2.115   8.134
 1629TIP3   OH228339   3.739   3.729   6.891
 1629TIP3    H128340   3.677   3.674   6.838
 1629TIP3    H228341   3.791   3.659   6.935
 1630TIP3   OH228342   3.850   3.542   7.065
 1630TIP3    H128343   3.776   3.522   7.127
 1630TIP3    H228344   3.917   3.567   7.132
 1631TIP3   OH228345   5.595   3.616   7.333
 1631TIP3    H128346   5.624   3.632   7.425
 1631TIP3    H228347   5.630   3.695   7.288
 1632TIP3   OH228348   5.553   3.588   7.646
 1632TIP3    H128349   5.519   3.509   7.598
 1632TIP3    H228350   5.577   3.548   7.732
 1633TIP3   OH228351   5.437   3.151   8.130
 1633TIP3    H128352   5.350   3.162   8.174
 1633TIP3    H228353   5.475   3.241   8.144
 1634TIP3   OH228354   5.490   3.003   6.619
 1634TIP3    H128355   5.572   3.055   6.630
 1634TIP3    H228356   5.508   2.929   6.678
 1635TIP3   OH228357   5.589   2.790   6.845
 1635TIP3    H128358   5.502   2.745   6.855
 1635TIP3    H228359   5.603   2.814   6.937
 1636TIP3   OH228360   5.552   3.076   7.332
 1636TIP3    H128361   5.622   3.017   7.298
 1636TIP3    H228362   5.594   3.164   7.331
 1637TIP3   OH228363   5.423   3.362   7.574
 1637TIP3    H128364   5.351   3.396   7.630
 1637TIP3    H228365   5.374   3.335   7.493
 1638TIP3   OH228366   5.446   2.459   6.371
 1638TIP3    H128367   5.406   2.543   6.345
 1638TIP3    H228368   5.436   2.407   6.289
 1639TIP3   OH228369   5.368   2.669   6.926
 1639TIP3    H128370   5.330   2.588   6.889
 1639TIP3    H228371   5.336   2.667   7.019
 1640TIP3   OH228372   3.842   2.886   7.328
 1640TIP3    H128373   3.840   2.854   7.235
 1640TIP3    H228374   3.936   2.863   7.351
 1641TIP3   OH228375   5.455   2.849   7.889
 1641TIP3    H128376   5.509   2.767   7.886
 1641TIP3    H228377   5.520   2.920   7.874
 1642TIP3   OH228378   5.568   2.600   7.930
 1642TIP3    H128379   5.479   2.557   7.927
 1642TIP3    H228380   5.628   2.521   7.932
 1643TIP3   OH228381   5.304   2.431   6.742
 1643TIP3    H128382   5.298   2.334   6.759
 1643TIP3    H228383   5.397   2.437   6.716
 1644TIP3   OH228384   5.399   2.493   7.301
 1644TIP3    H128385   5.498   2.491   7.304
 1644TIP3    H228386   5.380   2.495   7.396
 1645TIP3   OH228387   5.406   2.549   7.570
 1645TIP3    H128388   5.314   2.572   7.593
 1645TIP3    H228389   5.446   2.636   7.549
 1646TIP3   OH228390   3.814   2.409   7.975
 1646TIP3    H128391   3.908   2.384   7.976
 1646TIP3    H228392   3.769   2.321   7.977
 1647TIP3   OH228393   5.626   1.977   8.088
 1647TIP3    H128394   5.661   1.901   8.037
 1647TIP3    H228395   5.626   2.047   8.020
 1648TIP3   OH228396   5.318   2.148   6.771
 1648TIP3    H128397   5.397   2.116   6.818
 1648TIP3    H228398   5.288   2.067   6.726
 1649TIP3   OH228399   3.948   2.224   7.308
 1649TIP3    H128400   3.987   2.135   7.294
 1649TIP3    H228401   4.022   2.284   7.286
 1650TIP3   OH228402   3.779   2.525   7.330
 1650TIP3    H128403   3.842   2.487   7.266
 1650TIP3    H228404   3.820   2.611   7.345
 1651TIP3   OH228405   5.560   2.185   7.934
 1651TIP3    H128406   5.489   2.197   8.001
 1651TIP3    H228407   5.509   2.149   7.859
 1652TIP3   OH228408   3.794   2.208   6.737
 1652TIP3    H128409   3.696   2.206   6.730
 1652TIP3    H228410   3.823   2.210   6.645
 1653TIP3   OH228411   5.284   3.654   6.928
 1653TIP3    H128412   5.356   3.666   6.865
 1653TIP3    H228413   5.311   3.709   7.004
 1654TIP3   OH228414   3.781   2.007   7.539
 1654TIP3    H128415   3.726   1.988   7.617
 1654TIP3    H228416   3.733   2.074   7.489
 1655TIP3   OH228417   4.022   3.323   7.955
 1655TIP3    H128418   3.935   3.356   7.928
 1655TIP3    H228419   4.012   3.319   8.051
 1656TIP3   OH228420   4.308   3.471   7.620
 1656TIP3    H128421   4.308   3.563   7.587
 1656TIP3    H228422   4.405   3.456   7.622
 1657TIP3   OH228423   4.719   3.579   7.882
 1657TIP3    H128424   4.730   3.573   7.979
 1657TIP3    H228425   4.805   3.618   7.857
 1658TIP3   OH228426   4.945   3.738   7.843
 1658TIP3    H128427   5.027   3.692   7.818
 1658TIP3    H228428   4.975   3.794   7.917
 1659TIP3   OH228429   5.449   1.948   7.743
 1659TIP3    H128430   5.377   1.983   7.690
 1659TIP3    H228431   5.455   1.855   7.712
 1660TIP3   OH228432   4.041   3.767   7.582
 1660TIP3    H128433   3.960   3.800   7.539
 1660TIP3    H228434   4.033   3.805   7.670
 1661TIP3   OH228435   4.297   3.722   7.494
 1661TIP3    H128436   4.203   3.737   7.521
 1661TIP3    H228437   4.307   3.786   7.421
 1662TIP3   OH228438   4.741   3.688   7.438
 1662TIP3    H128439   4.714   3.727   7.354
 1662TIP3    H228440   4.763   3.766   7.494
 1663TIP3   OH228441   4.965   3.567   7.568
 1663TIP3    H128442   4.900   3.603   7.505
 1663TIP3    H228443   5.041   3.625   7.548
 1664TIP3   OH228444   5.244   3.724   7.540
 1664TIP3    H128445   5.252   3.818   7.510
 1664TIP3    H228446   5.275   3.677   7.459
 1665TIP3   OH228447   4.008   3.607   7.279
 1665TIP3    H128448   3.987   3.550   7.356
 1665TIP3    H228449   4.099   3.577   7.254
 1666TIP3   OH228450   4.231   3.510   7.156
 1666TIP3    H128451   4.217   3.416   7.181
 1666TIP3    H228452   4.322   3.524   7.192
 1667TIP3   OH228453   4.470   3.512   7.273
 1667TIP3    H128454   4.489   3.416   7.266
 1667TIP3    H228455   4.468   3.523   7.369
 1668TIP3   OH228456   4.762   2.046   7.159
 1668TIP3    H128457   4.686   1.998   7.201
 1668TIP3    H228458   4.804   1.975   7.107
 1669TIP3   OH228459   5.338   1.914   7.153
 1669TIP3    H128460   5.406   1.969   7.108
 1669TIP3    H228461   5.257   1.946   7.107
 1670TIP3   OH228462   5.490   2.041   6.976
 1670TIP3    H128463   5.553   1.985   6.926
 1670TIP3    H228464   5.551   2.112   7.007
 1671TIP3   OH228465   4.034   1.974   6.975
 1671TIP3    H128466   3.948   1.983   6.933
 1671TIP3    H228467   4.067   1.888   6.939
 1672TIP3   OH228468   3.948   1.943   6.521
 1672TIP3    H128469   3.987   2.021   6.478
 1672TIP3    H228470   3.922   1.979   6.607
 1673TIP3   OH228471   4.492   1.926   6.954
 1673TIP3    H128472   4.556   1.966   6.893
 1673TIP3    H228473   4.502   1.983   7.032
 1674TIP3   OH228474   5.082   1.965   7.049
 1674TIP3    H128475   5.035   1.977   6.966
 1674TIP3    H228476   5.034   1.887   7.086
 1675TIP3   OH228477   5.180   1.936   6.647
 1675TIP3    H128478   5.120   1.982   6.707
 1675TIP3    H228479   5.137   1.847   6.651
 1676TIP3   OH228480   3.908   3.556   6.635
 1676TIP3    H128481   3.831   3.527   6.582
 1676TIP3    H228482   3.919   3.647   6.600
 1677TIP3   OH228483   5.456   3.598   6.695
 1677TIP3    H128484   5.431   3.505   6.669
 1677TIP3    H228485   5.415   3.646   6.621
 1678TIP3   OH228486   4.028   2.023   7.867
 1678TIP3    H128487   3.973   1.946   7.887
 1678TIP3    H228488   4.099   2.013   7.935
 1679TIP3   OH228489   4.204   1.964   8.066
 1679TIP3    H128490   4.288   1.923   8.038
 1679TIP3    H228491   4.163   1.890   8.114
 1680TIP3   OH228492   5.068   1.885   8.107
 1680TIP3    H128493   5.088   1.846   8.195
 1680TIP3    H228494   5.156   1.875   8.063
 1681TIP3   OH228495   5.397   3.499   7.940
 1681TIP3    H128496   5.328   3.495   7.870
 1681TIP3    H228497   5.381   3.589   7.974
 1682TIP3   OH228498   6.843   2.895   6.911
 1682TIP3    H128499   6.818   2.988   6.929
 1682TIP3    H228500   6.771   2.864   6.853
 1683TIP3   OH228501   6.727   2.787   7.275
 1683TIP3    H128502   6.745   2.737   7.357
 1683TIP3    H228503   6.674   2.723   7.222
 1684TIP3   OH228504   5.953   2.786   7.458
 1684TIP3    H128505   5.941   2.691   7.474
 1684TIP3    H228506   5.992   2.809   7.545
 1685TIP3   OH228507   7.119   3.126   7.145
 1685TIP3    H128508   7.123   3.032   7.171
 1685TIP3    H228509   7.075   3.165   7.223
 1686TIP3   OH228510   6.056   3.206   7.264
 1686TIP3    H128511   6.032   3.141   7.195
 1686TIP3    H228512   6.151   3.218   7.243
 1687TIP3   OH228513   5.732   2.557   6.834
 1687TIP3    H128514   5.701   2.649   6.844
 1687TIP3    H228515   5.652   2.514   6.801
 1688TIP3   OH228516   5.839   2.795   7.062
 1688TIP3    H128517   5.848   2.699   7.080
 1688TIP3    H228518   5.839   2.799   6.965
 1689TIP3   OH228519   6.799   3.638   7.095
 1689TIP3    H128520   6.876   3.578   7.095
 1689TIP3    H228521   6.763   3.630   7.185
 1690TIP3   OH228522   6.573   3.101   7.378
 1690TIP3    H128523   6.559   3.075   7.285
 1690TIP3    H228524   6.664   3.066   7.386
 1691TIP3   OH228525   7.422   2.230   7.334
 1691TIP3    H128526   7.458   2.278   7.409
 1691TIP3    H228527   7.495   2.239   7.271
 1692TIP3   OH228528   6.916   2.483   7.377
 1692TIP3    H128529   6.950   2.393   7.392
 1692TIP3    H228530   6.920   2.484   7.280
 1693TIP3   OH228531   6.213   2.278   7.051
 1693TIP3    H128532   6.222   2.364   7.005
 1693TIP3    H228533   6.156   2.232   6.986
 1694TIP3   OH228534   6.974   2.332   6.937
 1694TIP3    H128535   7.019   2.281   7.008
 1694TIP3    H228536   7.049   2.372   6.893
 1695TIP3   OH228537   5.855   2.543   7.153
 1695TIP3    H128538   5.916   2.488   7.205
 1695TIP3    H228539   5.881   2.510   7.064
 1696TIP3   OH228540   6.338   2.705   7.102
 1696TIP3    H128541   6.416   2.667   7.147
 1696TIP3    H228542   6.324   2.636   7.034
 1697TIP3   OH228543   7.432   2.329   7.636
 1697TIP3    H128544   7.379   2.411   7.622
 1697TIP3    H228545   7.481   2.354   7.715
 1698TIP3   OH228546   6.115   2.209   7.484
 1698TIP3    H128547   6.070   2.253   7.409
 1698TIP3    H228548   6.051   2.219   7.556
 1699TIP3   OH228549   6.796   3.159   6.848
 1699TIP3    H128550   6.745   3.138   6.765
 1699TIP3    H228551   6.735   3.221   6.894
 1700TIP3   OH228552   6.336   2.984   7.447
 1700TIP3    H128553   6.284   3.058   7.485
 1700TIP3    H228554   6.416   3.032   7.416
 1701TIP3   OH228555   7.139   2.257   7.142
 1701TIP3    H128556   7.123   2.167   7.173
 1701TIP3    H228557   7.234   2.265   7.158
 1702TIP3   OH228558   6.057   2.379   7.267
 1702TIP3    H128559   6.121   2.441   7.309
 1702TIP3    H228560   6.109   2.349   7.190
 1703TIP3   OH228561   6.166   3.157   7.551
 1703TIP3    H128562   6.151   3.246   7.513
 1703TIP3    H228563   6.098   3.157   7.623
 1704TIP3   OH228564   5.755   3.121   6.630
 1704TIP3    H128565   5.753   3.160   6.541
 1704TIP3    H228566   5.819   3.176   6.679
 1705TIP3   OH228567   7.134   3.325   7.342
 1705TIP3    H128568   7.038   3.339   7.342
 1705TIP3    H228569   7.163   3.418   7.322
 1706TIP3   OH228570   7.192   2.151   7.462
 1706TIP3    H128571   7.120   2.175   7.400
 1706TIP3    H228572   7.270   2.192   7.418
 1707TIP3   OH228573   6.450   1.941   7.215
 1707TIP3    H128574   6.425   1.848   7.209
 1707TIP3    H228575   6.363   1.979   7.245
 1708TIP3   OH228576   7.003   3.452   7.049
 1708TIP3    H128577   6.991   3.416   6.959
 1708TIP3    H228578   7.066   3.527   7.032
 1709TIP3   OH228579   7.073   3.234   6.837
 1709TIP3    H128580   7.113   3.163   6.779
 1709TIP3    H228581   7.002   3.181   6.880
 1710TIP3   OH228582   7.221   3.120   7.717
 1710TIP3    H128583   7.235   3.044   7.655
 1710TIP3    H228584   7.249   3.193   7.658
 1711TIP3   OH228585   6.694   2.806   6.677
 1711TIP3    H128586   6.614   2.853   6.645
 1711TIP3    H228587   6.746   2.797   6.595
 1712TIP3   OH228588   6.745   2.632   6.381
 1712TIP3    H128589   6.826   2.670   6.420
 1712TIP3    H228590   6.789   2.556   6.335
 1713TIP3   OH228591   7.423   2.749   7.532
 1713TIP3    H128592   7.362   2.825   7.519
 1713TIP3    H228593   7.494   2.770   7.467
 1714TIP3   OH228594   7.053   2.802   6.771
 1714TIP3    H128595   6.982   2.828   6.834
 1714TIP3    H228596   7.120   2.762   6.831
 1715TIP3   OH228597   7.026   2.649   7.694
 1715TIP3    H128598   7.022   2.741   7.726
 1715TIP3    H228599   6.960   2.655   7.622
 1716TIP3   OH228600   6.215   2.897   6.944
 1716TIP3    H128601   6.169   2.860   6.864
 1716TIP3    H228602   6.265   2.821   6.981
 1717TIP3   OH228603   6.325   3.237   7.212
 1717TIP3    H128604   6.305   3.246   7.115
 1717TIP3    H228605   6.418   3.212   7.215
 1718TIP3   OH228606   6.210   2.783   7.332
 1718TIP3    H128607   6.240   2.772   7.239
 1718TIP3    H228608   6.283   2.837   7.368
 1719TIP3   OH228609   6.882   3.342   7.409
 1719TIP3    H128610   6.869   3.421   7.465
 1719TIP3    H228611   6.908   3.274   7.474
 1720TIP3   OH228612   6.322   3.202   7.779
 1720TIP3    H128613   6.260   3.260   7.829
 1720TIP3    H228614   6.276   3.193   7.694
 1721TIP3   OH228615   6.974   2.733   6.523
 1721TIP3    H128616   6.989   2.748   6.619
 1721TIP3    H228617   7.039   2.794   6.484
 1722TIP3   OH228618   6.054   2.840   7.692
 1722TIP3    H128619   6.068   2.926   7.737
 1722TIP3    H228620   5.991   2.802   7.756
 1723TIP3   OH228621   6.753   3.419   6.909
 1723TIP3    H128622   6.789   3.458   6.991
 1723TIP3    H228623   6.672   3.471   6.904
 1724TIP3   OH228624   6.163   3.387   7.899
 1724TIP3    H128625   6.147   3.413   7.806
 1724TIP3    H228626   6.073   3.359   7.924
 1725TIP3   OH228627   6.067   2.802   6.734
 1725TIP3    H128628   6.111   2.860   6.668
 1725TIP3    H228629   6.071   2.715   6.692
 1726TIP3   OH228630   7.422   3.388   6.393
 1726TIP3    H128631   7.439   3.484   6.383
 1726TIP3    H228632   7.501   3.349   6.355
 1727TIP3   OH228633   5.761   3.028   7.636
 1727TIP3    H128634   5.733   2.999   7.548
 1727TIP3    H228635   5.761   2.940   7.682
 1728TIP3   OH228636   5.716   3.314   7.296
 1728TIP3    H128637   5.813   3.309   7.292
 1728TIP3    H228638   5.702   3.397   7.344
 1729TIP3   OH228639   7.494   3.407   7.875
 1729TIP3    H128640   7.507   3.316   7.905
 1729TIP3    H228641   7.413   3.432   7.925
 1730TIP3   OH228642   6.593   3.323   7.774
 1730TIP3    H128643   6.614   3.399   7.834
 1730TIP3    H228644   6.508   3.289   7.810
 1731TIP3   OH228645   6.677   3.703   6.690
 1731TIP3    H128646   6.702   3.730   6.599
 1731TIP3    H228647   6.664   3.790   6.735
 1732TIP3   OH228648   6.007   3.593   6.922
 1732TIP3    H128649   6.038   3.563   7.010
 1732TIP3    H228650   5.951   3.518   6.894
 1733TIP3   OH228651   6.916   3.588   6.747
 1733TIP3    H128652   6.830   3.636   6.736
 1733TIP3    H228653   6.952   3.628   6.827
 1734TIP3   OH228654   7.207   2.546   7.912
 1734TIP3    H128655   7.160   2.567   7.829
 1734TIP3    H228656   7.229   2.452   7.900
 1735TIP3   OH228657   5.964   3.177   7.710
 1735TIP3    H128658   5.966   3.143   7.802
 1735TIP3    H228659   5.882   3.133   7.677
 1736TIP3   OH228660   6.219   2.036   7.303
 1736TIP3    H128661   6.129   2.041   7.266
 1736TIP3    H228662   6.207   2.089   7.385
 1737TIP3   OH228663   6.703   1.983   7.629
 1737TIP3    H128664   6.745   1.939   7.706
 1737TIP3    H228665   6.609   1.990   7.654
 1738TIP3   OH228666   6.997   2.372   7.720
 1738TIP3    H128667   6.940   2.351   7.797
 1738TIP3    H228668   7.009   2.469   7.729
 1739TIP3   OH228669   6.229   2.528   7.430
 1739TIP3    H128670   6.158   2.522   7.495
 1739TIP3    H228671   6.208   2.615   7.390
 1740TIP3   OH228672   6.235   2.509   6.925
 1740TIP3    H128673   6.139   2.516   6.911
 1740TIP3    H228674   6.263   2.487   6.834
 1741TIP3   OH228675   6.785   2.592   6.812
 1741TIP3    H128676   6.749   2.668   6.761
 1741TIP3    H228677   6.844   2.548   6.748
 1742TIP3   OH228678   6.674   2.624   7.907
 1742TIP3    H128679   6.632   2.538   7.931
 1742TIP3    H228680   6.745   2.625   7.973
 1743TIP3   OH228681   6.886   2.546   7.097
 1743TIP3    H128682   6.854   2.617   7.037
 1743TIP3    H228683   6.907   2.477   7.030
 1744TIP3   OH228684   5.977   2.522   7.554
 1744TIP3    H128685   6.008   2.551   7.641
 1744TIP3    H228686   5.944   2.433   7.577
 1745TIP3   OH228687   5.690   2.226   7.016
 1745TIP3    H128688   5.723   2.231   7.107
 1745TIP3    H228689   5.727   2.307   6.978
 1746TIP3   OH228690   6.803   2.693   7.519
 1746TIP3    H128691   6.855   2.624   7.472
 1746TIP3    H228692   6.740   2.635   7.568
 1747TIP3   OH228693   6.512   2.261   7.027
 1747TIP3    H128694   6.416   2.263   7.041
 1747TIP3    H228695   6.546   2.232   7.114
 1748TIP3   OH228696   5.944   2.430   6.929
 1748TIP3    H128697   5.880   2.467   6.864
 1748TIP3    H228698   5.981   2.350   6.887
 1749TIP3   OH228699   6.256   2.435   6.665
 1749TIP3    H128700   6.352   2.430   6.681
 1749TIP3    H228701   6.251   2.515   6.610
 1750TIP3   OH228702   6.934   2.193   7.354
 1750TIP3    H128703   6.863   2.195   7.421
 1750TIP3    H228704   6.884   2.162   7.276
 1751TIP3   OH228705   6.140   2.553   6.395
 1751TIP3    H128706   6.096   2.595   6.319
 1751TIP3    H228707   6.194   2.623   6.436
 1752TIP3   OH228708   7.204   3.753   8.007
 1752TIP3    H128709   7.226   3.813   7.934
 1752TIP3    H228710   7.286   3.758   8.060
 1753TIP3   OH228711   6.002   3.015   7.923
 1753TIP3    H128712   6.060   3.031   8.001
 1753TIP3    H228713   5.917   2.996   7.968
 1754TIP3   OH228714   6.603   2.545   7.196
 1754TIP3    H128715   6.686   2.510   7.159
 1754TIP3    H228716   6.563   2.464   7.234
 1755TIP3   OH228717   6.048   2.194   6.862
 1755TIP3    H128718   5.996   2.119   6.901
 1755TIP3    H228719   6.088   2.152   6.785
 1756TIP3   OH228720   6.464   2.385   7.448
 1756TIP3    H128721   6.390   2.450   7.446
 1756TIP3    H228722   6.534   2.435   7.494
 1757TIP3   OH228723   6.504   2.982   6.602
 1757TIP3    H128724   6.436   2.916   6.575
 1757TIP3    H228725   6.460   3.027   6.677
 1758TIP3   OH228726   7.257   2.958   7.513
 1758TIP3    H128727   7.306   3.008   7.444
 1758TIP3    H228728   7.175   2.937   7.467
 1759TIP3   OH228729   6.882   2.262   6.506
 1759TIP3    H128730   6.889   2.244   6.411
 1759TIP3    H228731   6.920   2.351   6.513
 1760TIP3   OH228732   6.625   3.051   7.721
 1760TIP3    H128733   6.595   2.970   7.763
 1760TIP3    H228734   6.619   3.113   7.796
 1761TIP3   OH228735   6.993   2.479   6.610
 1761TIP3    H128736   7.076   2.484   6.660
 1761TIP3    H228737   6.994   2.561   6.557
 1762TIP3   OH228738   6.033   2.967   7.152
 1762TIP3    H128739   6.089   2.958   7.070
 1762TIP3    H228740   5.957   2.910   7.126
 1763TIP3   OH228741   6.722   3.154   6.598
 1763TIP3    H128742   6.656   3.218   6.563
 1763TIP3    H228743   6.670   3.071   6.589
 1764TIP3   OH228744   5.726   2.776   7.723
 1764TIP3    H128745   5.721   2.717   7.801
 1764TIP3    H228746   5.674   2.727   7.656
 1765TIP3   OH228747   6.405   2.761   7.902
 1765TIP3    H128748   6.366   2.711   7.828
 1765TIP3    H228749   6.497   2.728   7.902
 1766TIP3   OH228750   6.913   3.289   7.736
 1766TIP3    H128751   6.840   3.311   7.795
 1766TIP3    H228752   6.987   3.322   7.789
 1767TIP3   OH228753   7.406   2.553   6.576
 1767TIP3    H128754   7.380   2.553   6.481
 1767TIP3    H228755   7.437   2.646   6.580
 1768TIP3   OH228756   7.464   3.093   7.840
 1768TIP3    H128757   7.375   3.109   7.801
 1768TIP3    H228758   7.519   3.080   7.759
 1769TIP3   OH228759   7.335   3.377   6.656
 1769TIP3    H128760   7.263   3.314   6.644
 1769TIP3    H228761   7.384   3.368   6.570
 1770TIP3   OH228762   7.034   2.873   7.315
 1770TIP3    H128763   6.942   2.850   7.296
 1770TIP3    H228764   7.079   2.802   7.264
 1771TIP3   OH228765   6.241   3.285   6.964
 1771TIP3    H128766   6.299   3.360   6.941
 1771TIP3    H228767   6.171   3.295   6.897
 1772TIP3   OH228768   5.861   2.898   6.476
 1772TIP3    H128769   5.955   2.919   6.478
 1772TIP3    H228770   5.833   2.940   6.560
 1773TIP3   OH228771   6.448   3.106   6.875
 1773TIP3    H128772   6.361   3.145   6.897
 1773TIP3    H228773   6.435   3.017   6.910
 1774TIP3   OH228774   6.472   3.494   7.577
 1774TIP3    H128775   6.532   3.566   7.553
 1774TIP3    H228776   6.513   3.460   7.657
 1775TIP3   OH228777   6.285   3.553   6.829
 1775TIP3    H128778   6.195   3.548   6.865
 1775TIP3    H228779   6.314   3.638   6.869
 1776TIP3   OH228780   6.820   3.061   7.501
 1776TIP3    H128781   6.816   3.009   7.584
 1776TIP3    H228782   6.876   3.002   7.447
 1777TIP3   OH228783   7.047   3.203   6.441
 1777TIP3    H128784   7.107   3.150   6.496
 1777TIP3    H228785   6.972   3.144   6.429
 1778TIP3   OH228786   7.068   3.544   7.752
 1778TIP3    H128787   6.987   3.505   7.712
 1778TIP3    H228788   7.098   3.606   7.683
 1779TIP3   OH228789   7.493   3.642   6.438
 1779TIP3    H128790   7.539   3.705   6.380
 1779TIP3    H228791   7.418   3.701   6.464
 1780TIP3   OH228792   5.933   2.280   7.691
 1780TIP3    H128793   5.862   2.320   7.745
 1780TIP3    H228794   5.930   2.189   7.725
 1781TIP3   OH228795   7.132   3.026   6.647
 1781TIP3    H128796   7.097   2.940   6.681
 1781TIP3    H228797   7.228   3.003   6.640
 1782TIP3   OH228798   5.879   3.443   7.500
 1782TIP3    H128799   5.941   3.373   7.523
 1782TIP3    H228800   5.872   3.491   7.583
 1783TIP3   OH228801   6.476   3.253   6.293
 1783TIP3    H128802   6.412   3.237   6.222
 1783TIP3    H228803   6.421   3.299   6.360
 1784TIP3   OH228804   6.316   3.302   6.515
 1784TIP3    H128805   6.311   3.206   6.528
 1784TIP3    H228806   6.387   3.328   6.576
 1785TIP3   OH228807   6.770   2.259   7.611
 1785TIP3    H128808   6.863   2.277   7.636
 1785TIP3    H228809   6.756   2.166   7.639
 1786TIP3   OH228810   6.805   2.208   6.752
 1786TIP3    H128811   6.836   2.215   6.658
 1786TIP3    H228812   6.872   2.262   6.799
 1787TIP3   OH228813   6.623   3.408   6.598
 1787TIP3    H128814   6.636   3.488   6.652
 1787TIP3    H228815   6.686   3.422   6.525
 1788TIP3   OH228816   6.525   2.415   6.756
 1788TIP3    H128817   6.609   2.464   6.758
 1788TIP3    H228818   6.528   2.370   6.842
 1789TIP3   OH228819   6.667   2.506   7.654
 1789TIP3    H128820   6.679   2.528   7.749
 1789TIP3    H228821   6.711   2.418   7.644
 1790TIP3   OH228822   6.636   2.050   6.875
 1790TIP3    H128823   6.589   2.123   6.920
 1790TIP3    H228824   6.712   2.100   6.837
 1791TIP3   OH228825   6.316   3.643   6.551
 1791TIP3    H128826   6.270   3.570   6.507
 1791TIP3    H228827   6.300   3.618   6.645
 1792TIP3   OH228828   6.211   2.177   6.580
 1792TIP3    H128829   6.210   2.271   6.607
 1792TIP3    H228830   6.307   2.157   6.585
 1793TIP3   OH228831   7.230   2.237   7.790
 1793TIP3    H128832   7.144   2.266   7.754
 1793TIP3    H228833   7.290   2.255   7.715
 1794TIP3   OH228834   7.114   2.654   7.159
 1794TIP3    H128835   7.028   2.607   7.155
 1794TIP3    H228836   7.163   2.597   7.223
 1795TIP3   OH228837   6.023   3.222   6.451
 1795TIP3    H128838   6.100   3.271   6.486
 1795TIP3    H228839   6.069   3.159   6.394
 1796TIP3   OH228840   7.239   3.563   7.311
 1796TIP3    H128841   7.214   3.638   7.252
 1796TIP3    H228842   7.335   3.584   7.321
 1797TIP3   OH228843   5.965   1.983   7.237
 1797TIP3    H128844   5.959   1.978   7.139
 1797TIP3    H228845   5.938   1.891   7.261
 1798TIP3   OH228846   5.863   3.361   6.812
 1798TIP3    H128847   5.781   3.364   6.863
 1798TIP3    H228848   5.842   3.425   6.741
 1799TIP3   OH228849   5.756   3.666   7.971
 1799TIP3    H128850   5.826   3.655   8.040
 1799TIP3    H228851   5.722   3.574   7.969
 1800TIP3   OH228852   6.265   3.522   8.129
 1800TIP3    H128853   6.356   3.489   8.121
 1800TIP3    H228854   6.226   3.483   8.049
 1801TIP3   OH228855   6.866   3.405   7.992
 1801TIP3    H128856   6.850   3.318   8.035
 1801TIP3    H228857   6.951   3.429   8.036
 1802TIP3   OH228858   5.752   2.999   8.039
 1802TIP3    H128859   5.705   2.915   8.051
 1802TIP3    H228860   5.701   3.045   7.968
 1803TIP3   OH228861   6.424   3.019   7.953
 1803TIP3    H128862   6.381   3.080   7.890
 1803TIP3    H228863   6.395   2.928   7.926
 1804TIP3   OH228864   6.753   3.209   6.249
 1804TIP3    H128865   6.655   3.208   6.258
 1804TIP3    H228866   6.771   3.136   6.189
 1805TIP3   OH228867   6.993   2.996   7.765
 1805TIP3    H128868   7.080   3.043   7.767
 1805TIP3    H228869   6.934   3.073   7.760
 1806TIP3   OH228870   5.875   2.727   8.004
 1806TIP3    H128871   5.964   2.689   8.001
 1806TIP3    H228872   5.882   2.781   8.085
 1807TIP3   OH228873   6.229   2.639   7.686
 1807TIP3    H128874   6.168   2.716   7.691
 1807TIP3    H228875   6.302   2.678   7.634
 1808TIP3   OH228876   6.762   2.907   8.079
 1808TIP3    H128877   6.830   2.876   8.016
 1808TIP3    H228878   6.738   2.826   8.128
 1809TIP3   OH228879   6.330   2.423   7.796
 1809TIP3    H128880   6.342   2.355   7.727
 1809TIP3    H228881   6.303   2.502   7.744
 1810TIP3   OH228882   6.357   2.206   7.607
 1810TIP3    H128883   6.403   2.259   7.537
 1810TIP3    H228884   6.264   2.213   7.579
 1811TIP3   OH228885   6.454   2.795   7.595
 1811TIP3    H128886   6.548   2.803   7.573
 1811TIP3    H228887   6.411   2.870   7.548
 1812TIP3   OH228888   6.904   2.530   8.130
 1812TIP3    H128889   6.886   2.436   8.115
 1812TIP3    H228890   6.995   2.540   8.097
 1813TIP3   OH228891   7.056   2.839   7.978
 1813TIP3    H128892   7.026   2.889   7.900
 1813TIP3    H228893   7.151   2.831   7.957
 1814TIP3   OH228894   6.153   2.489   8.032
 1814TIP3    H128895   6.080   2.435   7.993
 1814TIP3    H228896   6.220   2.491   7.962
 1815TIP3   OH228897   6.432   1.955   7.623
 1815TIP3    H128898   6.401   2.047   7.613
 1815TIP3    H228899   6.362   1.908   7.577
 1816TIP3   OH228900   6.539   2.404   8.008
 1816TIP3    H128901   6.490   2.394   8.091
 1816TIP3    H228902   6.475   2.368   7.944
 1817TIP3   OH228903   6.819   2.327   7.928
 1817TIP3    H128904   6.724   2.317   7.939
 1817TIP3    H228905   6.849   2.255   7.990
 1818TIP3   OH228906   6.914   2.150   8.093
 1818TIP3    H128907   6.962   2.066   8.102
 1818TIP3    H228908   6.926   2.192   8.181
 1819TIP3   OH228909   5.947   2.306   8.006
 1819TIP3    H128910   5.933   2.220   7.963
 1819TIP3    H228911   5.941   2.281   8.102
 1820TIP3   OH228912   6.392   1.894   7.885
 1820TIP3    H128913   6.462   1.830   7.861
 1820TIP3    H228914   6.379   1.937   7.798
 1821TIP3   OH228915   6.424   2.010   8.147
 1821TIP3    H128916   6.388   1.988   8.059
 1821TIP3    H228917   6.410   2.107   8.146
 1822TIP3   OH228918   5.776   3.200   6.331
 1822TIP3    H128919   5.855   3.195   6.388
 1822TIP3    H228920   5.814   3.225   6.245
 1823TIP3   OH228921   5.632   3.727   6.876
 1823TIP3    H128922   5.564   3.674   6.829
 1823TIP3    H228923   5.654   3.669   6.952
 1824TIP3   OH228924   5.718   3.547   7.071
 1824TIP3    H128925   5.654   3.490   7.117
 1824TIP3    H228926   5.781   3.570   7.142
 1825TIP3   OH228927   7.495   3.638   7.340
 1825TIP3    H128928   7.505   3.625   7.436
 1825TIP3    H228929   7.515   3.733   7.335
 1826TIP3   OH228930   7.427   3.583   7.654
 1826TIP3    H128931   7.393   3.517   7.590
 1826TIP3    H228932   7.456   3.522   7.726
 1827TIP3   OH228933   7.298   3.172   8.119
 1827TIP3    H128934   7.224   3.185   8.182
 1827TIP3    H228935   7.343   3.258   8.129
 1828TIP3   OH228936   7.407   3.029   6.681
 1828TIP3    H128937   7.494   3.068   6.701
 1828TIP3    H228938   7.417   2.942   6.725
 1829TIP3   OH228939   7.436   2.821   6.858
 1829TIP3    H128940   7.360   2.763   6.879
 1829TIP3    H228941   7.481   2.823   6.946
 1830TIP3   OH228942   7.443   3.060   7.361
 1830TIP3    H128943   7.510   2.995   7.333
 1830TIP3    H228944   7.478   3.145   7.326
 1831TIP3   OH228945   7.294   3.352   7.565
 1831TIP3    H128946   7.229   3.398   7.620
 1831TIP3    H228947   7.248   3.339   7.479
 1832TIP3   OH228948   7.486   2.805   6.518
 1832TIP3    H128949   7.540   2.769   6.443
 1832TIP3    H228950   7.509   2.899   6.517
 1833TIP3   OH228951   7.346   2.538   6.319
 1833TIP3    H128952   7.404   2.589   6.261
 1833TIP3    H228953   7.317   2.465   6.263
 1834TIP3   OH228954   7.234   2.659   6.902
 1834TIP3    H128955   7.234   2.575   6.849
 1834TIP3    H228956   7.198   2.633   6.989
 1835TIP3   OH228957   5.761   2.886   7.311
 1835TIP3    H128958   5.758   2.858   7.217
 1835TIP3    H228959   5.839   2.832   7.339
 1836TIP3   OH228960   7.331   2.852   7.895
 1836TIP3    H128961   7.399   2.788   7.865
 1836TIP3    H228962   7.382   2.934   7.879
 1837TIP3   OH228963   7.474   2.626   7.949
 1837TIP3    H128964   7.377   2.629   7.939
 1837TIP3    H228965   7.489   2.529   7.959
 1838TIP3   OH228966   7.235   2.451   6.746
 1838TIP3    H128967   7.237   2.353   6.754
 1838TIP3    H228968   7.300   2.466   6.675
 1839TIP3   OH228969   7.248   2.495   7.324
 1839TIP3    H128970   7.343   2.478   7.300
 1839TIP3    H228971   7.249   2.473   7.418
 1840TIP3   OH228972   7.270   2.542   7.609
 1840TIP3    H128973   7.177   2.572   7.601
 1840TIP3    H228974   7.319   2.622   7.579
 1841TIP3   OH228975   5.722   2.387   7.900
 1841TIP3    H128976   5.800   2.361   7.954
 1841TIP3    H228977   5.661   2.311   7.919
 1842TIP3   OH228978   7.462   1.904   8.126
 1842TIP3    H128979   7.524   1.845   8.075
 1842TIP3    H228980   7.466   1.978   8.062
 1843TIP3   OH228981   7.220   2.185   6.753
 1843TIP3    H128982   7.266   2.127   6.817
 1843TIP3    H228983   7.163   2.121   6.706
 1844TIP3   OH228984   5.835   2.223   7.285
 1844TIP3    H128985   5.877   2.134   7.278
 1844TIP3    H228986   5.913   2.282   7.278
 1845TIP3   OH228987   5.659   2.524   7.327
 1845TIP3    H128988   5.730   2.515   7.260
 1845TIP3    H228989   5.685   2.607   7.370
 1846TIP3   OH228990   7.444   2.112   7.946
 1846TIP3    H128991   7.359   2.162   7.955
 1846TIP3    H228992   7.424   2.068   7.860
 1847TIP3   OH228993   7.146   3.645   6.931
 1847TIP3    H128994   7.203   3.653   6.852
 1847TIP3    H228995   7.199   3.694   6.997
 1848TIP3   OH228996   5.672   2.006   7.546
 1848TIP3    H128997   5.609   1.968   7.611
 1848TIP3    H228998   5.617   2.064   7.491
 1849TIP3   OH228999   5.909   3.326   7.975
 1849TIP3    H129000   5.825   3.360   7.939
 1849TIP3    H229001   5.886   3.298   8.064
 1850TIP3   OH229002   6.198   3.468   7.622
 1850TIP3    H129003   6.177   3.560   7.593
 1850TIP3    H229004   6.296   3.472   7.622
 1851TIP3   OH229005   6.600   3.585   7.874
 1851TIP3    H129006   6.604   3.584   7.972
 1851TIP3    H229007   6.691   3.615   7.852
 1852TIP3   OH229008   6.833   3.718   7.828
 1852TIP3    H129009   6.916   3.668   7.824
 1852TIP3    H229010   6.851   3.772   7.908
 1853TIP3   OH229011   7.339   1.954   7.759
 1853TIP3    H129012   7.255   1.985   7.719
 1853TIP3    H229013   7.344   1.860   7.729
 1854TIP3   OH229014   5.940   3.775   7.591
 1854TIP3    H129015   5.859   3.813   7.548
 1854TIP3    H229016   5.924   3.805   7.682
 1855TIP3   OH229017   6.169   3.718   7.481
 1855TIP3    H129018   6.080   3.745   7.516
 1855TIP3    H229019   6.188   3.790   7.417
 1856TIP3   OH229020   6.662   3.692   7.415
 1856TIP3    H129021   6.596   3.732   7.357
 1856TIP3    H229022   6.675   3.764   7.481
 1857TIP3   OH229023   6.844   3.561   7.567
 1857TIP3    H129024   6.777   3.596   7.503
 1857TIP3    H229025   6.909   3.634   7.559
 1858TIP3   OH229026   7.122   3.724   7.526
 1858TIP3    H129027   7.129   3.813   7.486
 1858TIP3    H229028   7.167   3.673   7.456
 1859TIP3   OH229029   5.898   3.618   7.276
 1859TIP3    H129030   5.879   3.560   7.352
 1859TIP3    H229031   5.987   3.584   7.250
 1860TIP3   OH229032   6.113   3.508   7.162
 1860TIP3    H129033   6.120   3.414   7.186
 1860TIP3    H229034   6.196   3.541   7.203
 1861TIP3   OH229035   6.347   3.547   7.284
 1861TIP3    H129036   6.395   3.465   7.271
 1861TIP3    H229037   6.343   3.551   7.381
 1862TIP3   OH229038   6.719   2.100   7.189
 1862TIP3    H129039   6.632   2.059   7.189
 1862TIP3    H229040   6.771   2.034   7.140
 1863TIP3   OH229041   7.195   1.905   7.191
 1863TIP3    H129042   7.248   1.950   7.123
 1863TIP3    H229043   7.106   1.920   7.153
 1864TIP3   OH229044   7.325   2.037   6.989
 1864TIP3    H129045   7.377   1.971   6.939
 1864TIP3    H229046   7.397   2.097   7.018
 1865TIP3   OH229047   5.922   1.977   6.964
 1865TIP3    H129048   5.830   1.956   6.941
 1865TIP3    H229049   5.965   1.891   6.944
 1866TIP3   OH229050   6.347   1.901   6.929
 1866TIP3    H129051   6.399   1.941   6.858
 1866TIP3    H229052   6.396   1.932   7.007
 1867TIP3   OH229053   6.942   1.957   7.083
 1867TIP3    H129054   6.947   1.962   6.987
 1867TIP3    H229055   6.897   1.871   7.096
 1868TIP3   OH229056   7.079   1.951   6.651
 1868TIP3    H129057   7.033   1.964   6.567
 1868TIP3    H229058   7.042   1.868   6.684
 1869TIP3   OH229059   5.748   3.538   6.631
 1869TIP3    H129060   5.689   3.496   6.566
 1869TIP3    H229061   5.684   3.593   6.677
 1870TIP3   OH229062   6.483   2.165   6.653
 1870TIP3    H129063   6.556   2.130   6.705
 1870TIP3    H229064   6.506   2.260   6.653
 1871TIP3   OH229065   6.728   3.733   6.429
 1871TIP3    H129066   6.803   3.773   6.378
 1871TIP3    H229067   6.746   3.638   6.416
 1872TIP3   OH229068   7.318   3.640   6.712
 1872TIP3    H129069   7.332   3.551   6.671
 1872TIP3    H229070   7.329   3.701   6.636
 1873TIP3   OH229071   5.893   2.034   7.878
 1873TIP3    H129072   5.848   1.949   7.886
 1873TIP3    H229073   5.971   2.021   7.937
 1874TIP3   OH229074   6.109   1.979   8.071
 1874TIP3    H129075   6.178   1.917   8.042
 1874TIP3    H229076   6.058   1.917   8.128
 1875TIP3   OH229077   6.951   1.881   8.104
 1875TIP3    H129078   6.956   1.839   8.192
 1875TIP3    H229079   7.042   1.863   8.070
 1876TIP3   OH229080   7.263   3.501   7.940
 1876TIP3    H129081   7.200   3.501   7.865
 1876TIP3    H229082   7.251   3.593   7.970
 1877TIP3   OH229083   7.565   2.579   6.870
 1877TIP3    H129084   7.527   2.660   6.831
 1877TIP3    H229085   7.496   2.515   6.850
 1878TIP3   OH229086   7.629   2.816   7.067
 1878TIP3    H129087   7.648   2.723   7.045
 1878TIP3    H229088   7.717   2.858   7.057
 1879TIP3   OH229089   7.634   3.165   6.706
 1879TIP3    H129090   7.639   3.180   6.609
 1879TIP3    H229091   7.598   3.251   6.735
 1880TIP3   OH229092   7.573   3.020   7.608
 1880TIP3    H129093   7.517   3.017   7.529
 1880TIP3    H229094   7.592   2.927   7.631
 1881TIP3   OH229095   7.536   3.300   7.282
 1881TIP3    H129096   7.631   3.300   7.256
 1881TIP3    H229097   7.540   3.366   7.353
 1882TIP3   OH229098   7.515   2.234   6.997
 1882TIP3    H129099   7.597   2.288   6.993
 1882TIP3    H229100   7.522   2.185   6.912
 1883TIP3   OH229101   7.569   2.332   6.526
 1883TIP3    H129102   7.613   2.363   6.445
 1883TIP3    H229103   7.517   2.413   6.547
 1884TIP3   OH229104   7.574   2.779   7.751
 1884TIP3    H129105   7.569   2.709   7.819
 1884TIP3    H229106   7.510   2.748   7.684
 1885TIP3   OH229107   7.619   3.665   7.934
 1885TIP3    H129108   7.717   3.663   7.933
 1885TIP3    H229109   7.595   3.574   7.908
 1886TIP3   OH229110   7.616   2.998   8.045
 1886TIP3    H129111   7.560   2.924   8.071
 1886TIP3    H229112   7.560   3.043   7.978
 1887TIP3   OH229113   7.645   3.227   6.424
 1887TIP3    H129114   7.736   3.215   6.386
 1887TIP3    H229115   7.591   3.182   6.359
 1888TIP3   OH229116   7.483   3.708   6.901
 1888TIP3    H129117   7.430   3.661   6.833
 1888TIP3    H229118   7.516   3.631   6.953
 1889TIP3   OH229119   7.572   3.501   7.042
 1889TIP3    H129120   7.558   3.478   7.135
 1889TIP3    H229121   7.666   3.532   7.044
 1890TIP3   OH229122   7.595   2.827   7.350
 1890TIP3    H129123   7.579   2.835   7.254
 1890TIP3    H229124   7.688   2.860   7.351
 1891TIP3   OH229125   7.521   2.370   7.953
 1891TIP3    H129126   7.618   2.381   7.949
 1891TIP3    H229127   7.513   2.273   7.973
 1892TIP3   OH229128   7.506   2.514   7.283
 1892TIP3    H129129   7.600   2.498   7.305
 1892TIP3    H229130   7.502   2.608   7.302
 1893TIP3   OH229131   7.512   2.152   6.743
 1893TIP3    H129132   7.434   2.176   6.690
 1893TIP3    H229133   7.581   2.190   6.685
 1894TIP3   OH229134   7.496   2.006   7.553
 1894TIP3    H129135   7.459   1.983   7.641
 1894TIP3    H229136   7.428   2.065   7.517
 1895TIP3   OH229137   7.601   3.510   6.694
 1895TIP3    H129138   7.580   3.494   6.600
 1895TIP3    H229139   7.611   3.606   6.697
 1896TIP3   OH229140   1.210   4.785   6.913
 1896TIP3    H129141   1.196   4.881   6.907
 1896TIP3    H229142   1.144   4.753   6.849
 1897TIP3   OH229143   1.091   4.661   7.271
 1897TIP3    H129144   1.093   4.619   7.359
 1897TIP3    H229145   1.017   4.615   7.226
 1898TIP3   OH229146   0.364   4.663   7.438
 1898TIP3    H129147   0.342   4.574   7.473
 1898TIP3    H229148   0.437   4.690   7.496
 1899TIP3   OH229149   1.414   4.972   7.111
 1899TIP3    H129150   1.407   4.910   7.185
 1899TIP3    H229151   1.417   5.056   7.157
 1900TIP3   OH229152   0.358   5.099   7.273
 1900TIP3    H129153   0.357   5.005   7.245
 1900TIP3    H229154   0.454   5.112   7.261
 1901TIP3   OH229155   0.130   4.511   6.819
 1901TIP3    H129156   0.094   4.600   6.824
 1901TIP3    H229157   0.048   4.461   6.843
 1902TIP3   OH229158   0.208   4.690   7.069
 1902TIP3    H129159   0.229   4.598   7.096
 1902TIP3    H229160   0.263   4.703   6.990
 1903TIP3   OH229161   1.163   5.512   7.088
 1903TIP3    H129162   1.228   5.453   7.042
 1903TIP3    H229163   1.139   5.453   7.161
 1904TIP3   OH229164   0.905   4.914   7.359
 1904TIP3    H129165   0.944   4.871   7.282
 1904TIP3    H229166   0.987   4.958   7.392
 1905TIP3   OH229167   1.754   4.077   7.356
 1905TIP3    H129168   1.766   4.128   7.439
 1905TIP3    H229169   1.835   4.102   7.308
 1906TIP3   OH229170   1.276   4.387   7.374
 1906TIP3    H129171   1.274   4.290   7.384
 1906TIP3    H229172   1.245   4.392   7.281
 1907TIP3   OH229173   0.541   4.159   7.077
 1907TIP3    H129174   0.571   4.240   7.030
 1907TIP3    H229175   0.516   4.106   6.998
 1908TIP3   OH229176   1.323   4.195   6.937
 1908TIP3    H129177   1.370   4.176   7.021
 1908TIP3    H229178   1.377   4.267   6.900
 1909TIP3   OH229179   0.248   4.436   7.134
 1909TIP3    H129180   0.292   4.366   7.185
 1909TIP3    H229181   0.265   4.400   7.045
 1910TIP3   OH229182   0.658   4.585   7.080
 1910TIP3    H129183   0.738   4.545   7.118
 1910TIP3    H229184   0.633   4.514   7.015
 1911TIP3   OH229185   1.770   4.213   7.595
 1911TIP3    H129186   1.739   4.299   7.556
 1911TIP3    H229187   1.807   4.244   7.679
 1912TIP3   OH229188   0.454   4.078   7.484
 1912TIP3    H129189   0.411   4.132   7.414
 1912TIP3    H229190   0.390   4.090   7.556
 1913TIP3   OH229191   1.145   5.049   6.828
 1913TIP3    H129192   1.128   5.044   6.731
 1913TIP3    H229193   1.137   5.145   6.840
 1914TIP3   OH229194   0.670   4.841   7.482
 1914TIP3    H129195   0.610   4.912   7.512
 1914TIP3    H229196   0.742   4.893   7.439
 1915TIP3   OH229197   1.492   4.190   7.154
 1915TIP3    H129198   1.550   4.112   7.153
 1915TIP3    H229199   1.554   4.255   7.196
 1916TIP3   OH229200   0.382   4.264   7.285
 1916TIP3    H129201   0.443   4.327   7.332
 1916TIP3    H229202   0.440   4.233   7.211
 1917TIP3   OH229203   0.539   5.070   7.550
 1917TIP3    H129204   0.535   5.154   7.503
 1917TIP3    H229205   0.450   5.067   7.589
 1918TIP3   OH229206   1.496   5.179   7.368
 1918TIP3    H129207   1.399   5.193   7.377
 1918TIP3    H229208   1.516   5.257   7.312
 1919TIP3   OH229209   1.483   4.024   7.464
 1919TIP3    H129210   1.416   4.083   7.424
 1919TIP3    H229211   1.562   4.042   7.410
 1920TIP3   OH229212   0.792   3.811   7.246
 1920TIP3    H129213   0.753   3.725   7.227
 1920TIP3    H229214   0.711   3.861   7.274
 1921TIP3   OH229215   1.355   5.340   7.002
 1921TIP3    H129216   1.371   5.273   6.932
 1921TIP3    H229217   1.429   5.401   6.983
 1922TIP3   OH229218   1.451   5.140   6.845
 1922TIP3    H129219   1.444   5.079   6.768
 1922TIP3    H229220   1.426   5.080   6.918
 1923TIP3   OH229221   1.594   5.003   7.714
 1923TIP3    H129222   1.608   4.931   7.647
 1923TIP3    H229223   1.610   5.082   7.658
 1924TIP3   OH229224   1.050   4.707   6.685
 1924TIP3    H129225   0.987   4.777   6.657
 1924TIP3    H229226   1.110   4.703   6.607
 1925TIP3   OH229227   1.801   4.660   7.492
 1925TIP3    H129228   1.731   4.728   7.495
 1925TIP3    H229229   1.859   4.697   7.422
 1926TIP3   OH229230   1.445   4.722   6.790
 1926TIP3    H129231   1.367   4.749   6.845
 1926TIP3    H229232   1.496   4.669   6.854
 1927TIP3   OH229233   1.425   4.575   7.682
 1927TIP3    H129234   1.411   4.667   7.706
 1927TIP3    H229235   1.350   4.559   7.624
 1928TIP3   OH229236   0.504   4.752   6.958
 1928TIP3    H129237   0.524   4.704   6.876
 1928TIP3    H229238   0.566   4.705   7.018
 1929TIP3   OH229239   0.698   5.110   7.224
 1929TIP3    H129240   0.698   5.083   7.131
 1929TIP3    H229241   0.751   5.042   7.268
 1930TIP3   OH229242   0.623   4.626   7.335
 1930TIP3    H129243   0.627   4.639   7.238
 1930TIP3    H229244   0.648   4.712   7.372
 1931TIP3   OH229245   1.235   5.229   7.400
 1931TIP3    H129246   1.216   5.293   7.471
 1931TIP3    H229247   1.200   5.146   7.441
 1932TIP3   OH229248   0.679   5.081   7.780
 1932TIP3    H129249   0.612   5.138   7.824
 1932TIP3    H229250   0.637   5.069   7.692
 1933TIP3   OH229251   1.299   4.667   6.568
 1933TIP3    H129252   1.367   4.690   6.635
 1933TIP3    H229253   1.328   4.711   6.486
 1934TIP3   OH229254   0.405   4.704   7.718
 1934TIP3    H129255   0.394   4.784   7.773
 1934TIP3    H229256   0.314   4.687   7.687
 1935TIP3   OH229257   1.073   5.368   6.832
 1935TIP3    H129258   1.046   5.357   6.924
 1935TIP3    H229259   1.015   5.442   6.802
 1936TIP3   OH229260   0.507   5.272   7.890
 1936TIP3    H129261   0.499   5.302   7.797
 1936TIP3    H229262   0.415   5.282   7.921
 1937TIP3   OH229263   1.684   3.796   6.581
 1937TIP3    H129264   1.589   3.816   6.598
 1937TIP3    H229265   1.708   3.864   6.516
 1938TIP3   OH229266   0.445   4.628   6.724
 1938TIP3    H129267   0.460   4.722   6.704
 1938TIP3    H229268   0.357   4.610   6.688
 1939TIP3   OH229269   0.117   4.913   7.676
 1939TIP3    H129270   0.028   4.922   7.638
 1939TIP3    H229271   0.160   4.843   7.626
 1940TIP3   OH229272   0.114   5.248   7.266
 1940TIP3    H129273   0.168   5.168   7.254
 1940TIP3    H229274   0.160   5.284   7.345
 1941TIP3   OH229275   1.850   5.267   7.866
 1941TIP3    H129276   1.838   5.171   7.851
 1941TIP3    H229277   1.764   5.288   7.911
 1942TIP3   OH229278   0.938   5.209   7.766
 1942TIP3    H129279   0.960   5.278   7.832
 1942TIP3    H229280   0.845   5.186   7.783
 1943TIP3   OH229281   0.972   5.598   6.703
 1943TIP3    H129282   1.023   5.620   6.622
 1943TIP3    H229283   0.994   5.678   6.757
 1944TIP3   OH229284   0.385   5.451   6.917
 1944TIP3    H129285   0.412   5.453   7.013
 1944TIP3    H229286   0.349   5.360   6.916
 1945TIP3   OH229287   1.270   5.543   6.698
 1945TIP3    H129288   1.186   5.506   6.729
 1945TIP3    H229289   1.321   5.461   6.687
 1946TIP3   OH229290   1.569   4.398   7.896
 1946TIP3    H129291   1.508   4.441   7.833
 1946TIP3    H229292   1.560   4.305   7.868
 1947TIP3   OH229293   0.292   5.115   7.700
 1947TIP3    H129294   0.326   5.064   7.776
 1947TIP3    H229295   0.217   5.055   7.680
 1948TIP3   OH229296   0.568   3.930   7.305
 1948TIP3    H129297   0.476   3.930   7.269
 1948TIP3    H229298   0.553   3.983   7.387
 1949TIP3   OH229299   1.051   3.870   7.618
 1949TIP3    H129300   1.079   3.827   7.702
 1949TIP3    H229301   0.953   3.881   7.631
 1950TIP3   OH229302   1.324   4.295   7.714
 1950TIP3    H129303   1.279   4.263   7.796
 1950TIP3    H229304   1.265   4.366   7.685
 1951TIP3   OH229305   0.584   4.381   7.427
 1951TIP3    H129306   0.552   4.406   7.516
 1951TIP3    H229307   0.587   4.471   7.385
 1952TIP3   OH229308   0.583   4.377   6.927
 1952TIP3    H129309   0.490   4.378   6.899
 1952TIP3    H229310   0.629   4.358   6.843
 1953TIP3   OH229311   1.123   4.486   6.818
 1953TIP3    H129312   1.094   4.569   6.773
 1953TIP3    H229313   1.184   4.449   6.750
 1954TIP3   OH229314   1.023   4.512   7.941
 1954TIP3    H129315   0.972   4.433   7.970
 1954TIP3    H229316   1.105   4.501   7.993
 1955TIP3   OH229317   1.236   4.437   7.106
 1955TIP3    H129318   1.211   4.519   7.058
 1955TIP3    H229319   1.238   4.374   7.032
 1956TIP3   OH229320   0.313   4.402   7.576
 1956TIP3    H129321   0.386   4.424   7.635
 1956TIP3    H229322   0.284   4.314   7.608
 1957TIP3   OH229323   0.644   4.194   6.302
 1957TIP3    H129324   0.620   4.123   6.365
 1957TIP3    H229325   0.635   4.150   6.214
 1958TIP3   OH229326   0.042   4.159   7.024
 1958TIP3    H129327   0.109   4.124   7.084
 1958TIP3    H229328   0.074   4.136   6.934
 1959TIP3   OH229329   0.205   4.200   6.473
 1959TIP3    H129330   0.180   4.293   6.463
 1959TIP3    H229331   0.206   4.189   6.569
 1960TIP3   OH229332   1.144   4.571   7.521
 1960TIP3    H129333   1.199   4.502   7.477
 1960TIP3    H229334   1.083   4.517   7.577
 1961TIP3   OH229335   0.857   4.156   7.045
 1961TIP3    H129336   0.767   4.159   7.083
 1961TIP3    H229337   0.908   4.103   7.109
 1962TIP3   OH229338   0.309   4.311   6.903
 1962TIP3    H129339   0.240   4.340   6.841
 1962TIP3    H229340   0.327   4.220   6.872
 1963TIP3   OH229341   0.690   4.336   6.680
 1963TIP3    H129342   0.776   4.369   6.651
 1963TIP3    H229343   0.631   4.383   6.618
 1964TIP3   OH229344   1.237   4.103   7.342
 1964TIP3    H129345   1.171   4.057   7.397
 1964TIP3    H229346   1.238   4.047   7.263
 1965TIP3   OH229347   0.584   4.420   6.438
 1965TIP3    H129348   0.488   4.412   6.427
 1965TIP3    H229349   0.620   4.342   6.388
 1966TIP3   OH229350   1.562   5.647   8.014
 1966TIP3    H129351   1.579   5.657   7.918
 1966TIP3    H229352   1.635   5.702   8.047
 1967TIP3   OH229353   0.368   4.928   7.883
 1967TIP3    H129354   0.436   4.923   7.953
 1967TIP3    H229355   0.289   4.901   7.934
 1968TIP3   OH229356   0.909   4.448   7.180
 1968TIP3    H129357   0.997   4.420   7.149
 1968TIP3    H229358   0.877   4.368   7.224
 1969TIP3   OH229359   0.457   4.041   6.849
 1969TIP3    H129360   0.397   3.972   6.886
 1969TIP3    H229361   0.497   3.992   6.775
 1970TIP3   OH229362   0.813   4.254   7.444
 1970TIP3    H129363   0.730   4.307   7.435
 1970TIP3    H229364   0.873   4.312   7.493
 1971TIP3   OH229365   0.869   4.906   6.652
 1971TIP3    H129366   0.796   4.852   6.614
 1971TIP3    H229367   0.831   4.932   6.739
 1972TIP3   OH229368   1.612   4.853   7.501
 1972TIP3    H129369   1.661   4.907   7.434
 1972TIP3    H229370   1.526   4.847   7.458
 1973TIP3   OH229371   0.976   4.942   7.715
 1973TIP3    H129372   0.987   4.909   7.804
 1973TIP3    H229373   0.957   5.036   7.731
 1974TIP3   OH229374   1.287   4.395   6.628
 1974TIP3    H129375   1.381   4.391   6.650
 1974TIP3    H229376   1.284   4.471   6.565
 1975TIP3   OH229377   0.436   4.856   7.203
 1975TIP3    H129378   0.415   4.825   7.112
 1975TIP3    H229379   0.439   4.772   7.252
 1976TIP3   OH229380   1.064   5.065   6.556
 1976TIP3    H129381   1.014   5.147   6.535
 1976TIP3    H229382   0.993   4.999   6.571
 1977TIP3   OH229383   0.143   4.638   7.682
 1977TIP3    H129384   0.169   4.602   7.769
 1977TIP3    H229385   0.050   4.659   7.705
 1978TIP3   OH229386   0.760   4.643   7.908
 1978TIP3    H129387   0.729   4.593   7.831
 1978TIP3    H229388   0.853   4.613   7.914
 1979TIP3   OH229389   1.272   5.164   7.763
 1979TIP3    H129390   1.199   5.189   7.704
 1979TIP3    H229391   1.243   5.209   7.845
 1980TIP3   OH229392   1.837   4.987   7.831
 1980TIP3    H129393   1.742   4.992   7.805
 1980TIP3    H229394   1.881   4.983   7.743
 1981TIP3   OH229395   1.644   5.254   6.596
 1981TIP3    H129396   1.557   5.218   6.616
 1981TIP3    H229397   1.620   5.313   6.520
 1982TIP3   OH229398   1.368   4.767   7.308
 1982TIP3    H129399   1.276   4.746   7.289
 1982TIP3    H229400   1.415   4.695   7.262
 1983TIP3   OH229401   0.613   5.174   6.956
 1983TIP3    H129402   0.685   5.236   6.934
 1983TIP3    H229403   0.539   5.225   6.920
 1984TIP3   OH229404   0.727   4.942   6.893
 1984TIP3    H129405   0.684   5.030   6.897
 1984TIP3    H229406   0.677   4.890   6.958
 1985TIP3   OH229407   0.818   5.371   7.561
 1985TIP3    H129408   0.879   5.440   7.530
 1985TIP3    H229409   0.872   5.330   7.632
 1986TIP3   OH229410   0.645   5.422   6.860
 1986TIP3    H129411   0.550   5.437   6.874
 1986TIP3    H229412   0.674   5.515   6.864
 1987TIP3   OH229413   1.143   4.967   7.482
 1987TIP3    H129414   1.097   4.937   7.564
 1987TIP3    H229415   1.194   4.888   7.456
 1988TIP3   OH229416   1.451   5.436   7.738
 1988TIP3    H129417   1.365   5.396   7.715
 1988TIP3    H229418   1.466   5.495   7.660
 1989TIP3   OH229419   1.872   5.505   6.450
 1989TIP3    H129420   1.931   5.581   6.433
 1989TIP3    H229421   1.794   5.554   6.485
 1990TIP3   OH229422   0.228   4.164   7.671
 1990TIP3    H129423   0.185   4.209   7.747
 1990TIP3    H229424   0.226   4.072   7.704
 1991TIP3   OH229425   1.468   4.940   6.638
 1991TIP3    H129426   1.460   4.856   6.689
 1991TIP3    H229427   1.563   4.948   6.625
 1992TIP3   OH229428   0.227   5.352   7.489
 1992TIP3    H129429   0.296   5.289   7.516
 1992TIP3    H229430   0.192   5.382   7.574
 1993TIP3   OH229431   1.109   4.133   7.620
 1993TIP3    H129432   1.203   4.146   7.641
 1993TIP3    H229433   1.098   4.037   7.630
 1994TIP3   OH229434   1.201   4.080   6.730
 1994TIP3    H129435   1.177   4.169   6.697
 1994TIP3    H229436   1.253   4.105   6.809
 1995TIP3   OH229437   0.986   5.341   6.534
 1995TIP3    H129438   0.889   5.344   6.550
 1995TIP3    H229439   1.018   5.407   6.597
 1996TIP3   OH229440   0.977   4.244   6.820
 1996TIP3    H129441   1.001   4.339   6.821
 1996TIP3    H229442   0.930   4.230   6.905
 1997TIP3   OH229443   1.025   4.391   7.670
 1997TIP3    H129444   1.025   4.404   7.767
 1997TIP3    H229445   1.047   4.295   7.660
 1998TIP3   OH229446   1.021   3.944   6.877
 1998TIP3    H129447   0.984   4.004   6.946
 1998TIP3    H229448   1.087   4.004   6.835
 1999TIP3   OH229449   0.726   5.393   6.583
 1999TIP3    H129450   0.708   5.440   6.500
 1999TIP3    H229451   0.671   5.437   6.648
 2000TIP3   OH229452   0.593   4.077   6.550
 2000TIP3    H129453   0.588   4.164   6.594
 2000TIP3    H229454   0.675   4.038   6.587
 2001TIP3   OH229455   1.559   4.155   7.770
 2001TIP3    H129456   1.466   4.182   7.750
 2001TIP3    H229457   1.603   4.169   7.685
 2002TIP3   OH229458   1.481   4.540   7.174
 2002TIP3    H129459   1.399   4.487   7.175
 2002TIP3    H229460   1.544   4.481   7.220
 2003TIP3   OH229461   1.543   5.455   7.322
 2003TIP3    H129462   1.553   5.525   7.254
 2003TIP3    H229463   1.637   5.445   7.348
 2004TIP3   OH229464   0.311   3.892   7.224
 2004TIP3    H129465   0.320   3.867   7.130
 2004TIP3    H229466   0.283   3.805   7.262
 2005TIP3   OH229467   0.197   5.259   6.829
 2005TIP3    H129468   0.101   5.241   6.825
 2005TIP3    H229469   0.227   5.207   6.752
 2006TIP3   OH229470   0.190   5.524   7.970
 2006TIP3    H129471   0.247   5.547   8.046
 2006TIP3    H229472   0.185   5.427   7.980
 2007TIP3   OH229473   0.635   5.415   8.111
 2007TIP3    H129474   0.714   5.358   8.115
 2007TIP3    H229475   0.595   5.385   8.027
 2008TIP3   OH229476   1.208   5.280   7.998
 2008TIP3    H129477   1.177   5.206   8.055
 2008TIP3    H229478   1.302   5.283   8.027
 2009TIP3   OH229479   0.165   4.912   8.058
 2009TIP3    H129480   0.174   4.815   8.063
 2009TIP3    H229481   0.071   4.914   8.028
 2010TIP3   OH229482   0.785   4.901   7.956
 2010TIP3    H129483   0.765   4.958   7.879
 2010TIP3    H229484   0.771   4.809   7.921
 2011TIP3   OH229485   1.051   5.068   6.237
 2011TIP3    H129486   1.061   5.053   6.333
 2011TIP3    H229487   1.089   4.986   6.202
 2012TIP3   OH229488   1.352   4.892   7.759
 2012TIP3    H129489   1.438   4.940   7.752
 2012TIP3    H229490   1.294   4.971   7.770
 2013TIP3   OH229491   0.184   4.618   8.012
 2013TIP3    H129492   0.259   4.561   8.031
 2013TIP3    H229493   0.152   4.637   8.103
 2014TIP3   OH229494   0.690   4.713   6.576
 2014TIP3    H129495   0.639   4.631   6.589
 2014TIP3    H229496   0.642   4.757   6.504
 2015TIP3   OH229497   0.570   4.503   7.663
 2015TIP3    H129498   0.524   4.587   7.687
 2015TIP3    H229499   0.650   4.541   7.621
 2016TIP3   OH229500   1.127   4.801   8.075
 2016TIP3    H129501   1.186   4.753   8.014
 2016TIP3    H229502   1.083   4.730   8.124
 2017TIP3   OH229503   1.726   4.805   6.266
 2017TIP3    H129504   1.742   4.749   6.188
 2017TIP3    H229505   1.630   4.794   6.274
 2018TIP3   OH229506   0.656   4.302   7.819
 2018TIP3    H129507   0.664   4.226   7.756
 2018TIP3    H229508   0.638   4.377   7.758
 2019TIP3   OH229509   0.690   4.101   7.618
 2019TIP3    H129510   0.746   4.136   7.545
 2019TIP3    H229511   0.605   4.098   7.569
 2020TIP3   OH229512   0.826   4.660   7.612
 2020TIP3    H129513   0.918   4.685   7.597
 2020TIP3    H229514   0.779   4.735   7.569
 2021TIP3   OH229515   1.217   4.438   8.126
 2021TIP3    H129516   1.225   4.352   8.174
 2021TIP3    H229517   1.310   4.463   8.117
 2022TIP3   OH229518   1.409   4.737   7.970
 2022TIP3    H129519   1.381   4.787   7.890
 2022TIP3    H229520   1.500   4.712   7.946
 2023TIP3   OH229521   0.506   4.377   8.049
 2023TIP3    H129522   0.428   4.322   8.027
 2023TIP3    H229523   0.553   4.379   7.964
 2024TIP3   OH229524   0.778   3.847   7.618
 2024TIP3    H129525   0.739   3.937   7.630
 2024TIP3    H229526   0.703   3.799   7.578
 2025TIP3   OH229527   0.882   4.284   8.010
 2025TIP3    H129528   0.828   4.261   8.088
 2025TIP3    H229529   0.817   4.264   7.940
 2026TIP3   OH229530   1.171   4.219   7.925
 2026TIP3    H129531   1.076   4.212   7.942
 2026TIP3    H229532   1.203   4.155   7.992
 2027TIP3   OH229533   1.251   4.035   8.098
 2027TIP3    H129534   1.297   3.951   8.116
 2027TIP3    H229535   1.265   4.089   8.179
 2028TIP3   OH229536   0.299   4.192   8.048
 2028TIP3    H129537   0.343   4.119   8.002
 2028TIP3    H229538   0.266   4.148   8.130
 2029TIP3   OH229539   0.752   3.792   7.883
 2029TIP3    H129540   0.834   3.742   7.897
 2029TIP3    H229541   0.749   3.790   7.785
 2030TIP3   OH229542   0.773   3.907   8.156
 2030TIP3    H129543   0.760   3.860   8.071
 2030TIP3    H229544   0.765   3.999   8.128
 2031TIP3   OH229545   0.713   5.623   6.443
 2031TIP3    H129546   0.793   5.636   6.495
 2031TIP3    H229547   0.651   5.686   6.485
 2032TIP3   OH229548   7.737   5.642   6.858
 2032TIP3    H129549   7.644   5.672   6.867
 2032TIP3    H229550   7.751   5.610   6.950
 2033TIP3   OH229551   0.140   5.486   7.047
 2033TIP3    H129552   0.093   5.401   7.051
 2033TIP3    H229553   0.180   5.488   7.137
 2034TIP3   OH229554   1.811   5.517   7.339
 2034TIP3    H129555   1.856   5.537   7.422
 2034TIP3    H229556   1.869   5.557   7.273
 2035TIP3   OH229557   1.780   5.464   7.649
 2035TIP3    H129558   1.748   5.387   7.596
 2035TIP3    H229559   1.809   5.415   7.728
 2036TIP3   OH229560   1.665   5.045   8.139
 2036TIP3    H129561   1.577   5.057   8.180
 2036TIP3    H229562   1.701   5.136   8.150
 2037TIP3   OH229563   1.788   4.891   6.648
 2037TIP3    H129564   1.836   4.970   6.677
 2037TIP3    H229565   1.792   4.833   6.727
 2038TIP3   OH229566   1.829   4.693   6.848
 2038TIP3    H129567   1.740   4.665   6.879
 2038TIP3    H229568   1.879   4.695   6.932
 2039TIP3   OH229569   1.767   4.964   7.321
 2039TIP3    H129570   1.833   4.896   7.296
 2039TIP3    H229571   1.807   5.045   7.285
 2040TIP3   OH229572   1.642   5.245   7.575
 2040TIP3    H129573   1.572   5.289   7.625
 2040TIP3    H229574   1.594   5.220   7.492
 2041TIP3   OH229575   1.851   4.626   6.470
 2041TIP3    H129576   1.773   4.633   6.412
 2041TIP3    H229577   1.837   4.705   6.525
 2042TIP3   OH229578   1.601   4.564   6.933
 2042TIP3    H129579   1.585   4.472   6.903
 2042TIP3    H229580   1.568   4.560   7.026
 2043TIP3   OH229581   0.141   4.776   7.345
 2043TIP3    H129582   0.168   4.773   7.251
 2043TIP3    H229583   0.225   4.747   7.387
 2044TIP3   OH229584   1.694   4.734   7.884
 2044TIP3    H129585   1.743   4.649   7.890
 2044TIP3    H229586   1.763   4.795   7.850
 2045TIP3   OH229587   1.797   4.497   7.980
 2045TIP3    H129588   1.711   4.465   7.943
 2045TIP3    H229589   1.858   4.424   7.955
 2046TIP3   OH229590   1.571   4.316   6.815
 2046TIP3    H129591   1.567   4.217   6.815
 2046TIP3    H229592   1.624   4.326   6.736
 2047TIP3   OH229593   1.655   4.364   7.286
 2047TIP3    H129594   1.751   4.378   7.303
 2047TIP3    H229595   1.623   4.364   7.378
 2048TIP3   OH229596   1.636   4.436   7.552
 2048TIP3    H129597   1.552   4.462   7.594
 2048TIP3    H229598   1.679   4.523   7.539
 2049TIP3   OH229599   0.086   4.226   7.893
 2049TIP3    H129600   0.165   4.250   7.947
 2049TIP3    H229601   0.090   4.129   7.899
 2050TIP3   OH229602   1.856   3.870   8.086
 2050TIP3    H129603   1.900   3.798   8.038
 2050TIP3    H229604   1.855   3.940   8.017
 2051TIP3   OH229605   1.614   4.056   6.773
 2051TIP3    H129606   1.651   4.017   6.854
 2051TIP3    H229607   1.564   3.981   6.736
 2052TIP3   OH229608   0.140   4.131   7.285
 2052TIP3    H129609   0.168   4.039   7.272
 2052TIP3    H229610   0.224   4.176   7.267
 2053TIP3   OH229611   0.068   4.414   7.346
 2053TIP3    H129612   0.064   4.316   7.348
 2053TIP3    H229613   0.140   4.425   7.280
 2054TIP3   OH229614   1.784   4.081   7.932
 2054TIP3    H129615   1.715   4.103   7.997
 2054TIP3    H229616   1.731   4.047   7.858
 2055TIP3   OH229617   1.827   3.989   6.424
 2055TIP3    H129618   1.862   3.908   6.384
 2055TIP3    H229619   1.781   4.034   6.352
 2056TIP3   OH229620   0.061   4.079   6.727
 2056TIP3    H129621  -0.031   4.048   6.732
 2056TIP3    H229622   0.082   4.042   6.639
 2057TIP3   OH229623   1.521   5.536   6.937
 2057TIP3    H129624   1.589   5.525   6.867
 2057TIP3    H229625   1.570   5.577   7.010
 2058TIP3   OH229626   0.040   3.866   7.585
 2058TIP3    H129627  -0.056   3.848   7.586
 2058TIP3    H229628   0.043   3.941   7.526
 2059TIP3   OH229629   0.239   5.220   7.975
 2059TIP3    H129630   0.216   5.167   7.897
 2059TIP3    H229631   0.227   5.154   8.044
 2060TIP3   OH229632   0.556   5.371   7.623
 2060TIP3    H129633   0.548   5.461   7.585
 2060TIP3    H229634   0.653   5.356   7.611
 2061TIP3   OH229635   0.964   5.467   7.876
 2061TIP3    H129636   0.966   5.451   7.972
 2061TIP3    H229637   1.052   5.507   7.863
 2062TIP3   OH229638   1.176   5.637   7.836
 2062TIP3    H129639   1.255   5.595   7.801
 2062TIP3    H229640   1.210   5.679   7.918
 2063TIP3   OH229641   1.682   3.829   7.743
 2063TIP3    H129642   1.615   3.879   7.696
 2063TIP3    H229643   1.676   3.740   7.702
 2064TIP3   OH229644   0.298   5.691   7.608
 2064TIP3    H129645   0.212   5.724   7.573
 2064TIP3    H229646   0.285   5.702   7.704
 2065TIP3   OH229647   0.534   5.616   7.487
 2065TIP3    H129648   0.443   5.630   7.524
 2065TIP3    H229649   0.538   5.686   7.419
 2066TIP3   OH229650   0.978   5.569   7.432
 2066TIP3    H129651   0.928   5.621   7.368
 2066TIP3    H229652   1.012   5.641   7.490
 2067TIP3   OH229653   1.210   5.447   7.570
 2067TIP3    H129654   1.145   5.484   7.508
 2067TIP3    H229655   1.285   5.506   7.548
 2068TIP3   OH229656   1.468   5.605   7.531
 2068TIP3    H129657   1.483   5.697   7.502
 2068TIP3    H229658   1.497   5.556   7.450
 2069TIP3   OH229659   0.255   5.529   7.288
 2069TIP3    H129660   0.216   5.480   7.363
 2069TIP3    H229661   0.338   5.479   7.274
 2070TIP3   OH229662   0.460   5.401   7.173
 2070TIP3    H129663   0.458   5.306   7.193
 2070TIP3    H229664   0.542   5.421   7.223
 2071TIP3   OH229665   0.695   5.393   7.296
 2071TIP3    H129666   0.733   5.304   7.282
 2071TIP3    H229667   0.722   5.411   7.388
 2072TIP3   OH229668   0.990   3.952   7.150
 2072TIP3    H129669   0.912   3.898   7.178
 2072TIP3    H229670   1.052   3.887   7.116
 2073TIP3   OH229671   1.567   3.789   7.157
 2073TIP3    H129672   1.628   3.854   7.116
 2073TIP3    H229673   1.481   3.822   7.123
 2074TIP3   OH229674   1.713   3.948   7.011
 2074TIP3    H129675   1.766   3.875   6.973
 2074TIP3    H229676   1.784   4.013   7.031
 2075TIP3   OH229677   0.318   3.843   6.948
 2075TIP3    H129678   0.235   3.835   6.898
 2075TIP3    H229679   0.352   3.751   6.939
 2076TIP3   OH229680   0.144   3.889   6.488
 2076TIP3    H129681   0.212   3.860   6.424
 2076TIP3    H229682   0.151   3.819   6.556
 2077TIP3   OH229683   0.716   3.792   6.933
 2077TIP3    H129684   0.788   3.833   6.884
 2077TIP3    H229685   0.722   3.837   7.018
 2078TIP3   OH229686   1.300   3.845   7.064
 2078TIP3    H129687   1.262   3.857   6.976
 2078TIP3    H229688   1.255   3.763   7.093
 2079TIP3   OH229689   1.434   3.846   6.667
 2079TIP3    H129690   1.349   3.888   6.682
 2079TIP3    H229691   1.409   3.752   6.685
 2080TIP3   OH229692   0.167   5.455   6.570
 2080TIP3    H129693   0.070   5.466   6.550
 2080TIP3    H229694   0.208   5.477   6.484
 2081TIP3   OH229695   0.840   3.999   6.677
 2081TIP3    H129696   0.904   3.981   6.748
 2081TIP3    H229697   0.857   4.093   6.665
 2082TIP3   OH229698   1.092   5.631   6.452
 2082TIP3    H129699   1.186   5.653   6.429
 2082TIP3    H229700   1.093   5.541   6.414
 2083TIP3   OH229701   1.692   5.477   6.739
 2083TIP3    H129702   1.674   5.395   6.688
 2083TIP3    H229703   1.676   5.545   6.669
 2084TIP3   OH229704   0.244   3.915   7.872
 2084TIP3    H129705   0.191   3.834   7.887
 2084TIP3    H229706   0.328   3.888   7.916
 2085TIP3   OH229707   0.463   3.860   8.071
 2085TIP3    H129708   0.547   3.813   8.054
 2085TIP3    H229709   0.422   3.794   8.132
 2086TIP3   OH229710   1.309   3.771   8.120
 2086TIP3    H129711   1.326   3.723   8.204
 2086TIP3    H229712   1.397   3.768   8.081
 2087TIP3   OH229713   1.625   5.389   7.936
 2087TIP3    H129714   1.551   5.385   7.872
 2087TIP3    H229715   1.614   5.479   7.973
 2088TIP3   OH229716   3.096   4.778   6.928
 2088TIP3    H129717   3.092   4.873   6.950
 2088TIP3    H229718   3.029   4.771   6.857
 2089TIP3   OH229719   2.949   4.684   7.298
 2089TIP3    H129720   2.971   4.629   7.377
 2089TIP3    H229721   2.895   4.622   7.245
 2090TIP3   OH229722   2.170   4.669   7.416
 2090TIP3    H129723   2.161   4.583   7.460
 2090TIP3    H229724   2.248   4.707   7.460
 2091TIP3   OH229725   3.282   4.994   7.141
 2091TIP3    H129726   3.277   4.920   7.203
 2091TIP3    H229727   3.302   5.068   7.201
 2092TIP3   OH229728   2.287   5.122   7.250
 2092TIP3    H129729   2.258   5.029   7.240
 2092TIP3    H229730   2.382   5.109   7.234
 2093TIP3   OH229731   1.967   4.446   6.794
 2093TIP3    H129732   1.949   4.537   6.824
 2093TIP3    H229733   1.876   4.413   6.791
 2094TIP3   OH229734   2.005   4.696   7.046
 2094TIP3    H129735   2.049   4.613   7.079
 2094TIP3    H229736   2.079   4.758   7.035
 2095TIP3   OH229737   3.039   5.517   7.115
 2095TIP3    H129738   3.103   5.463   7.063
 2095TIP3    H229739   3.019   5.455   7.185
 2096TIP3   OH229740   2.776   4.949   7.362
 2096TIP3    H129741   2.803   4.910   7.277
 2096TIP3    H229742   2.864   4.969   7.400
 2097TIP3   OH229743   3.649   4.073   7.364
 2097TIP3    H129744   3.669   4.121   7.447
 2097TIP3    H229745   3.726   4.097   7.308
 2098TIP3   OH229746   3.156   4.387   7.379
 2098TIP3    H129747   3.148   4.290   7.393
 2098TIP3    H229748   3.121   4.390   7.288
 2099TIP3   OH229749   2.412   4.155   7.049
 2099TIP3    H129750   2.447   4.237   7.009
 2099TIP3    H229751   2.370   4.116   6.970
 2100TIP3   OH229752   3.183   4.186   6.951
 2100TIP3    H129753   3.241   4.155   7.025
 2100TIP3    H229754   3.242   4.251   6.909
 2101TIP3   OH229755   2.092   4.461   7.154
 2101TIP3    H129756   2.156   4.415   7.211
 2101TIP3    H229757   2.117   4.419   7.068
 2102TIP3   OH229758   2.557   4.575   7.112
 2102TIP3    H129759   2.650   4.547   7.121
 2102TIP3    H229760   2.521   4.504   7.054
 2103TIP3   OH229761   3.657   4.211   7.598
 2103TIP3    H129762   3.627   4.290   7.546
 2103TIP3    H229763   3.677   4.254   7.683
 2104TIP3   OH229764   2.324   4.086   7.482
 2104TIP3    H129765   2.293   4.137   7.404
 2104TIP3    H229766   2.256   4.113   7.548
 2105TIP3   OH229767   3.035   5.059   6.832
 2105TIP3    H129768   3.003   5.044   6.742
 2105TIP3    H229769   2.984   5.139   6.856
 2106TIP3   OH229770   2.557   4.839   7.491
 2106TIP3    H129771   2.490   4.907   7.517
 2106TIP3    H229772   2.618   4.894   7.437
 2107TIP3   OH229773   3.362   4.144   7.141
 2107TIP3    H129774   3.380   4.077   7.208
 2107TIP3    H229775   3.434   4.207   7.157
 2108TIP3   OH229776   2.276   4.276   7.272
 2108TIP3    H129777   2.343   4.338   7.310
 2108TIP3    H229778   2.323   4.239   7.194
 2109TIP3   OH229779   2.409   5.050   7.561
 2109TIP3    H129780   2.408   5.127   7.502
 2109TIP3    H229781   2.321   5.059   7.605
 2110TIP3   OH229782   3.379   5.184   7.320
 2110TIP3    H129783   3.290   5.220   7.340
 2110TIP3    H229784   3.419   5.266   7.285
 2111TIP3   OH229785   3.370   4.035   7.430
 2111TIP3    H129786   3.318   4.115   7.408
 2111TIP3    H229787   3.461   4.055   7.398
 2112TIP3   OH229788   2.665   3.831   7.205
 2112TIP3    H129789   2.638   3.739   7.219
 2112TIP3    H229790   2.579   3.877   7.231
 2113TIP3   OH229791   3.227   5.362   6.992
 2113TIP3    H129792   3.237   5.281   6.939
 2113TIP3    H229793   3.293   5.420   6.949
 2114TIP3   OH229794   3.344   5.147   6.838
 2114TIP3    H129795   3.323   5.079   6.771
 2114TIP3    H229796   3.321   5.098   6.919
 2115TIP3   OH229797   3.473   5.008   7.710
 2115TIP3    H129798   3.498   4.939   7.643
 2115TIP3    H229799   3.495   5.088   7.658
 2116TIP3   OH229800   2.971   4.711   6.700
 2116TIP3    H129801   2.892   4.766   6.676
 2116TIP3    H229802   3.023   4.714   6.618
 2117TIP3   OH229803   2.972   4.504   6.316
 2117TIP3    H129804   3.005   4.517   6.406
 2117TIP3    H229805   2.981   4.595   6.282
 2118TIP3   OH229806   3.679   4.654   7.500
 2118TIP3    H129807   3.612   4.724   7.492
 2118TIP3    H229808   3.743   4.686   7.432
 2119TIP3   OH229809   3.301   4.663   6.781
 2119TIP3    H129810   3.233   4.701   6.842
 2119TIP3    H229811   3.376   4.650   6.842
 2120TIP3   OH229812   3.305   4.556   7.701
 2120TIP3    H129813   3.314   4.650   7.722
 2120TIP3    H229814   3.234   4.558   7.634
 2121TIP3   OH229815   2.446   4.761   6.963
 2121TIP3    H129816   2.417   4.710   6.884
 2121TIP3    H229817   2.497   4.694   7.013
 2122TIP3   OH229818   2.577   5.113   7.217
 2122TIP3    H129819   2.587   5.088   7.124
 2122TIP3    H229820   2.647   5.061   7.260
 2123TIP3   OH229821   2.455   4.640   7.354
 2123TIP3    H129822   2.494   4.632   7.263
 2123TIP3    H229823   2.510   4.712   7.394
 2124TIP3   OH229824   3.133   5.242   7.396
 2124TIP3    H129825   3.075   5.299   7.448
 2124TIP3    H229826   3.114   5.153   7.432
 2125TIP3   OH229827   2.564   5.078   7.780
 2125TIP3    H129828   2.501   5.140   7.824
 2125TIP3    H229829   2.519   5.070   7.692
 2126TIP3   OH229830   3.186   4.615   6.544
 2126TIP3    H129831   3.227   4.630   6.632
 2126TIP3    H229832   3.235   4.683   6.492
 2127TIP3   OH229833   2.281   4.714   7.680
 2127TIP3    H129834   2.289   4.809   7.701
 2127TIP3    H229835   2.201   4.693   7.731
 2128TIP3   OH229836   2.878   5.284   6.895
 2128TIP3    H129837   2.919   5.333   6.968
 2128TIP3    H229838   2.874   5.350   6.825
 2129TIP3   OH229839   2.403   5.264   7.888
 2129TIP3    H129840   2.384   5.305   7.801
 2129TIP3    H229841   2.311   5.238   7.911
 2130TIP3   OH229842   3.513   3.827   6.592
 2130TIP3    H129843   3.418   3.847   6.577
 2130TIP3    H229844   3.554   3.854   6.508
 2131TIP3   OH229845   2.343   4.654   6.725
 2131TIP3    H129846   2.344   4.707   6.644
 2131TIP3    H229847   2.314   4.568   6.694
 2132TIP3   OH229848   3.657   5.262   6.339
 2132TIP3    H129849   3.675   5.350   6.378
 2132TIP3    H229850   3.740   5.217   6.360
 2133TIP3   OH229851   1.983   4.932   7.616
 2133TIP3    H129852   1.942   4.920   7.529
 2133TIP3    H229853   2.000   4.839   7.640
 2134TIP3   OH229854   1.940   5.207   7.276
 2134TIP3    H129855   2.031   5.186   7.250
 2134TIP3    H229856   1.954   5.267   7.350
 2135TIP3   OH229857   3.738   5.265   7.867
 2135TIP3    H129858   3.722   5.169   7.859
 2135TIP3    H229859   3.658   5.292   7.917
 2136TIP3   OH229860   2.838   5.217   7.763
 2136TIP3    H129861   2.855   5.298   7.816
 2136TIP3    H229862   2.741   5.208   7.771
 2137TIP3   OH229863   2.930   5.625   6.715
 2137TIP3    H129864   2.886   5.630   6.630
 2137TIP3    H229865   2.901   5.709   6.756
 2138TIP3   OH229866   2.252   5.474   6.933
 2138TIP3    H129867   2.287   5.446   7.021
 2138TIP3    H229868   2.179   5.409   6.922
 2139TIP3   OH229869   3.166   5.479   6.405
 2139TIP3    H129870   3.245   5.435   6.366
 2139TIP3    H229871   3.192   5.489   6.498
 2140TIP3   OH229872   3.169   5.505   6.695
 2140TIP3    H129873   3.083   5.551   6.702
 2140TIP3    H229874   3.141   5.414   6.714
 2141TIP3   OH229875   3.428   4.384   7.916
 2141TIP3    H129876   3.385   4.437   7.846
 2141TIP3    H229877   3.442   4.297   7.873
 2142TIP3   OH229878   2.196   5.063   7.717
 2142TIP3    H129879   2.200   5.029   7.808
 2142TIP3    H229880   2.109   5.030   7.686
 2143TIP3   OH229881   2.439   3.924   7.299
 2143TIP3    H129882   2.351   3.919   7.257
 2143TIP3    H229883   2.418   3.978   7.378
 2144TIP3   OH229884   2.932   3.855   7.632
 2144TIP3    H129885   2.983   3.812   7.705
 2144TIP3    H229886   2.842   3.858   7.669
 2145TIP3   OH229887   3.229   4.293   7.691
 2145TIP3    H129888   3.182   4.278   7.775
 2145TIP3    H229889   3.261   4.385   7.702
 2146TIP3   OH229890   3.334   4.763   6.378
 2146TIP3    H129891   3.301   4.717   6.299
 2146TIP3    H229892   3.427   4.780   6.349
 2147TIP3   OH229893   2.456   4.393   7.454
 2147TIP3    H129894   2.369   4.392   7.499
 2147TIP3    H229895   2.455   4.482   7.412
 2148TIP3   OH229896   2.445   4.391   6.928
 2148TIP3    H129897   2.351   4.382   6.903
 2148TIP3    H229898   2.491   4.369   6.843
 2149TIP3   OH229899   3.011   4.461   6.787
 2149TIP3    H129900   2.995   4.558   6.776
 2149TIP3    H229901   3.084   4.449   6.726
 2150TIP3   OH229902   2.895   4.508   7.928
 2150TIP3    H129903   2.861   4.421   7.957
 2150TIP3    H229904   2.979   4.510   7.977
 2151TIP3   OH229905   3.080   4.446   7.112
 2151TIP3    H129906   3.092   4.522   7.052
 2151TIP3    H229907   3.092   4.372   7.050
 2152TIP3   OH229908   2.196   4.406   7.559
 2152TIP3    H129909   2.233   4.443   7.641
 2152TIP3    H229910   2.163   4.320   7.591
 2153TIP3   OH229911   1.913   4.128   7.026
 2153TIP3    H129912   1.997   4.118   7.071
 2153TIP3    H229913   1.937   4.163   6.938
 2154TIP3   OH229914   3.009   4.551   7.527
 2154TIP3    H129915   3.068   4.490   7.479
 2154TIP3    H229916   2.955   4.490   7.583
 2155TIP3   OH229917   2.746   4.180   7.027
 2155TIP3    H129918   2.659   4.145   7.047
 2155TIP3    H229919   2.804   4.113   7.069
 2156TIP3   OH229920   2.169   4.329   6.933
 2156TIP3    H129921   2.102   4.353   6.864
 2156TIP3    H229922   2.189   4.237   6.909
 2157TIP3   OH229923   2.536   4.315   6.682
 2157TIP3    H129924   2.632   4.332   6.689
 2157TIP3    H229925   2.510   4.380   6.615
 2158TIP3   OH229926   3.129   4.113   7.328
 2158TIP3    H129927   3.074   4.067   7.392
 2158TIP3    H229928   3.137   4.052   7.253
 2159TIP3   OH229929   3.455   5.649   8.006
 2159TIP3    H129930   3.492   5.684   7.921
 2159TIP3    H229931   3.531   5.669   8.063
 2160TIP3   OH229932   2.248   4.877   7.938
 2160TIP3    H129933   2.305   4.926   8.001
 2160TIP3    H229934   2.160   4.879   7.982
 2161TIP3   OH229935   2.798   4.469   7.193
 2161TIP3    H129936   2.873   4.426   7.147
 2161TIP3    H229937   2.767   4.397   7.251
 2162TIP3   OH229938   2.251   4.082   6.842
 2162TIP3    H129939   2.223   3.995   6.880
 2162TIP3    H229940   2.262   4.058   6.748
 2163TIP3   OH229941   2.694   4.257   7.432
 2163TIP3    H129942   2.616   4.315   7.437
 2163TIP3    H229943   2.754   4.300   7.493
 2164TIP3   OH229944   2.759   4.868   6.649
 2164TIP3    H129945   2.700   4.879   6.573
 2164TIP3    H229946   2.719   4.924   6.717
 2165TIP3   OH229947   3.501   4.855   7.498
 2165TIP3    H129948   3.546   4.914   7.433
 2165TIP3    H229949   3.414   4.846   7.456
 2166TIP3   OH229950   3.102   4.204   6.424
 2166TIP3    H129951   3.056   4.231   6.505
 2166TIP3    H229952   3.186   4.253   6.440
 2167TIP3   OH229953   2.898   4.940   7.791
 2167TIP3    H129954   2.842   4.964   7.867
 2167TIP3    H229955   2.908   5.027   7.749
 2168TIP3   OH229956   3.279   4.350   6.565
 2168TIP3    H129957   3.311   4.362   6.656
 2168TIP3    H229958   3.266   4.442   6.535
 2169TIP3   OH229959   2.297   4.850   7.202
 2169TIP3    H129960   2.350   4.835   7.121
 2169TIP3    H229961   2.305   4.765   7.247
 2170TIP3   OH229962   1.952   4.684   7.734
 2170TIP3    H129963   1.957   4.620   7.808
 2170TIP3    H229964   1.906   4.634   7.664
 2171TIP3   OH229965   2.631   4.614   7.910
 2171TIP3    H129966   2.557   4.578   7.856
 2171TIP3    H229967   2.694   4.539   7.910
 2172TIP3   OH229968   3.157   5.165   7.766
 2172TIP3    H129969   3.077   5.194   7.721
 2172TIP3    H229970   3.150   5.216   7.848
 2173TIP3   OH229971   3.709   4.389   6.588
 2173TIP3    H129972   3.648   4.365   6.516
 2173TIP3    H229973   3.718   4.485   6.577
 2174TIP3   OH229974   3.727   4.991   7.837
 2174TIP3    H129975   3.637   4.988   7.798
 2174TIP3    H229976   3.783   4.975   7.758
 2175TIP3   OH229977   3.576   5.240   6.612
 2175TIP3    H129978   3.511   5.179   6.650
 2175TIP3    H229979   3.571   5.220   6.517
 2176TIP3   OH229980   3.254   4.770   7.311
 2176TIP3    H129981   3.166   4.748   7.279
 2176TIP3    H229982   3.307   4.699   7.271
 2177TIP3   OH229983   2.493   5.189   6.953
 2177TIP3    H129984   2.564   5.255   6.950
 2177TIP3    H229985   2.424   5.234   6.902
 2178TIP3   OH229986   2.120   4.648   6.426
 2178TIP3    H129987   2.152   4.736   6.404
 2178TIP3    H229988   2.024   4.663   6.437
 2179TIP3   OH229989   2.648   4.965   6.912
 2179TIP3    H129990   2.590   5.041   6.897
 2179TIP3    H229991   2.585   4.892   6.925
 2180TIP3   OH229992   2.690   5.387   7.579
 2180TIP3    H129993   2.751   5.448   7.533
 2180TIP3    H229994   2.751   5.347   7.642
 2181TIP3   OH229995   2.507   5.459   6.843
 2181TIP3    H129996   2.412   5.467   6.863
 2181TIP3    H229997   2.540   5.547   6.870
 2182TIP3   OH229998   3.034   4.970   7.484
 2182TIP3    H129999   3.070   4.940   7.569
 2182TIP3    H230000   3.078   4.910   7.421
 2183TIP3   OH230001   3.323   5.421   7.752
 2183TIP3    H130002   3.237   5.380   7.731
 2183TIP3    H230003   3.333   5.482   7.675
 2184TIP3   OH230004   3.740   5.511   6.442
 2184TIP3    H130005   3.777   5.572   6.377
 2184TIP3    H230006   3.676   5.568   6.490
 2185TIP3   OH230007   2.154   4.169   7.688
 2185TIP3    H130008   2.088   4.207   7.749
 2185TIP3    H230009   2.134   4.074   7.701
 2186TIP3   OH230010   3.355   4.935   6.668
 2186TIP3    H130011   3.342   4.844   6.700
 2186TIP3    H230012   3.444   4.932   6.628
 2187TIP3   OH230013   2.101   5.327   7.512
 2187TIP3    H130014   2.169   5.259   7.524
 2187TIP3    H230015   2.127   5.392   7.580
 2188TIP3   OH230016   2.986   4.119   7.623
 2188TIP3    H130017   3.078   4.125   7.651
 2188TIP3    H230018   2.966   4.023   7.631
 2189TIP3   OH230019   3.090   4.091   6.724
 2189TIP3    H130020   3.151   4.141   6.669
 2189TIP3    H230021   3.128   4.110   6.814
 2190TIP3   OH230022   2.863   5.362   6.560
 2190TIP3    H130023   2.766   5.372   6.574
 2190TIP3    H230024   2.865   5.329   6.470
 2191TIP3   OH230025   2.808   4.277   6.742
 2191TIP3    H130026   2.877   4.345   6.761
 2191TIP3    H230027   2.790   4.239   6.830
 2192TIP3   OH230028   2.880   4.366   7.676
 2192TIP3    H130029   2.907   4.397   7.764
 2192TIP3    H230030   2.922   4.278   7.663
 2193TIP3   OH230031   2.871   3.958   6.810
 2193TIP3    H130032   2.867   3.986   6.903
 2193TIP3    H230033   2.949   4.009   6.778
 2194TIP3   OH230034   2.594   5.394   6.568
 2194TIP3    H130035   2.592   5.465   6.497
 2194TIP3    H230036   2.545   5.438   6.639
 2195TIP3   OH230037   2.429   4.065   6.570
 2195TIP3    H130038   2.437   4.158   6.596
 2195TIP3    H230039   2.522   4.036   6.574
 2196TIP3   OH230040   3.462   4.144   7.771
 2196TIP3    H130041   3.368   4.149   7.748
 2196TIP3    H230042   3.507   4.143   7.684
 2197TIP3   OH230043   3.349   4.523   7.151
 2197TIP3    H130044   3.274   4.470   7.183
 2197TIP3    H230045   3.423   4.481   7.201
 2198TIP3   OH230046   3.444   5.450   7.331
 2198TIP3    H130047   3.435   5.520   7.263
 2198TIP3    H230048   3.541   5.459   7.347
 2199TIP3   OH230049   2.181   3.866   7.216
 2199TIP3    H130050   2.179   3.849   7.119
 2199TIP3    H230051   2.143   3.782   7.249
 2200TIP3   OH230052   2.069   5.283   6.853
 2200TIP3    H130053   1.983   5.325   6.864
 2200TIP3    H230054   2.088   5.313   6.763
 2201TIP3   OH230055   1.987   5.562   7.978
 2201TIP3    H130056   2.072   5.544   8.025
 2201TIP3    H230057   1.956   5.470   7.962
 2202TIP3   OH230058   2.504   5.384   8.142
 2202TIP3    H130059   2.600   5.365   8.135
 2202TIP3    H230060   2.475   5.351   8.055
 2203TIP3   OH230061   3.100   5.290   8.001
 2203TIP3    H130062   3.080   5.200   8.035
 2203TIP3    H230063   3.192   5.300   8.035
 2204TIP3   OH230064   3.375   5.355   6.273
 2204TIP3    H130065   3.425   5.273   6.285
 2204TIP3    H230066   3.443   5.417   6.244
 2205TIP3   OH230067   1.983   4.895   8.044
 2205TIP3    H130068   1.940   4.808   8.052
 2205TIP3    H230069   1.935   4.935   7.967
 2206TIP3   OH230070   2.660   4.891   7.936
 2206TIP3    H130071   2.620   4.966   7.887
 2206TIP3    H230072   2.585   4.830   7.946
 2207TIP3   OH230073   3.229   4.894   7.745
 2207TIP3    H130074   3.317   4.939   7.747
 2207TIP3    H230075   3.174   4.973   7.763
 2208TIP3   OH230076   2.099   4.607   8.009
 2208TIP3    H130077   2.187   4.568   7.997
 2208TIP3    H230078   2.115   4.669   8.082
 2209TIP3   OH230079   2.468   4.529   7.709
 2209TIP3    H130080   2.395   4.594   7.700
 2209TIP3    H230081   2.524   4.554   7.634
 2210TIP3   OH230082   3.013   4.793   8.076
 2210TIP3    H130083   3.077   4.772   8.006
 2210TIP3    H230084   3.038   4.731   8.146
 2211TIP3   OH230085   3.576   4.790   6.255
 2211TIP3    H130086   3.629   4.736   6.194
 2211TIP3    H230087   3.576   4.877   6.211
 2212TIP3   OH230088   2.564   4.292   7.799
 2212TIP3    H130089   2.570   4.221   7.730
 2212TIP3    H230090   2.538   4.370   7.744
 2213TIP3   OH230091   2.575   4.089   7.600
 2213TIP3    H130092   2.608   4.132   7.517
 2213TIP3    H230093   2.479   4.089   7.582
 2214TIP3   OH230094   2.729   4.666   7.581
 2214TIP3    H130095   2.797   4.675   7.512
 2214TIP3    H230096   2.661   4.733   7.552
 2215TIP3   OH230097   3.129   4.431   8.115
 2215TIP3    H130098   3.153   4.339   8.140
 2215TIP3    H230099   3.218   4.466   8.096
 2216TIP3   OH230100   3.281   4.739   7.979
 2216TIP3    H130101   3.252   4.775   7.894
 2216TIP3    H230102   3.367   4.703   7.954
 2217TIP3   OH230103   2.385   4.384   8.015
 2217TIP3    H130104   2.303   4.334   7.993
 2217TIP3    H230105   2.445   4.354   7.945
 2218TIP3   OH230106   2.647   3.830   7.640
 2218TIP3    H130107   2.626   3.926   7.634
 2218TIP3    H230108   2.576   3.794   7.585
 2219TIP3   OH230109   2.745   4.284   8.020
 2219TIP3    H130110   2.684   4.222   8.068
 2219TIP3    H230111   2.713   4.266   7.929
 2220TIP3   OH230112   3.089   4.220   7.915
 2220TIP3    H130113   3.006   4.188   7.878
 2220TIP3    H230114   3.103   4.156   7.988
 2221TIP3   OH230115   3.120   4.014   8.095
 2221TIP3    H130116   3.173   3.933   8.096
 2221TIP3    H230117   3.161   4.067   8.167
 2222TIP3   OH230118   2.173   4.204   8.016
 2222TIP3    H130119   2.157   4.119   7.971
 2222TIP3    H230120   2.170   4.176   8.111
 2223TIP3   OH230121   2.610   3.753   7.914
 2223TIP3    H130122   2.705   3.734   7.922
 2223TIP3    H230123   2.605   3.760   7.817
 2224TIP3   OH230124   2.682   3.914   8.135
 2224TIP3    H130125   2.647   3.859   8.062
 2224TIP3    H230126   2.632   3.996   8.120
 2225TIP3   OH230127   1.882   5.602   6.884
 2225TIP3    H130128   1.816   5.547   6.836
 2225TIP3    H230129   1.910   5.539   6.955
 2226TIP3   OH230130   1.956   5.435   7.079
 2226TIP3    H130131   1.891   5.381   7.127
 2226TIP3    H230132   2.026   5.448   7.146
 2227TIP3   OH230133   3.698   5.519   7.336
 2227TIP3    H130134   3.741   5.515   7.423
 2227TIP3    H230135   3.766   5.559   7.281
 2228TIP3   OH230136   3.686   5.442   7.640
 2228TIP3    H130137   3.640   5.368   7.596
 2228TIP3    H230138   3.710   5.400   7.725
 2229TIP3   OH230139   3.553   5.046   8.139
 2229TIP3    H130140   3.463   5.050   8.177
 2229TIP3    H230141   3.589   5.133   8.169
 2230TIP3   OH230142   3.637   4.889   6.638
 2230TIP3    H130143   3.721   4.933   6.665
 2230TIP3    H230144   3.619   4.837   6.718
 2231TIP3   OH230145   3.688   4.705   6.860
 2231TIP3    H130146   3.611   4.651   6.888
 2231TIP3    H230147   3.736   4.714   6.944
 2232TIP3   OH230148   3.653   4.956   7.315
 2232TIP3    H130149   3.726   4.891   7.308
 2232TIP3    H230150   3.691   5.036   7.275
 2233TIP3   OH230151   3.517   5.243   7.570
 2233TIP3    H130152   3.440   5.275   7.621
 2233TIP3    H230153   3.475   5.220   7.484
 2234TIP3   OH230154   3.762   4.690   6.483
 2234TIP3    H130155   3.675   4.688   6.440
 2234TIP3    H230156   3.749   4.767   6.542
 2235TIP3   OH230157   3.496   4.531   6.926
 2235TIP3    H130158   3.452   4.447   6.899
 2235TIP3    H230159   3.453   4.544   7.014
 2236TIP3   OH230160   1.954   4.769   7.300
 2236TIP3    H130161   1.960   4.734   7.209
 2236TIP3    H230162   2.046   4.750   7.331
 2237TIP3   OH230163   3.586   4.731   7.890
 2237TIP3    H130164   3.620   4.639   7.883
 2237TIP3    H230165   3.659   4.782   7.851
 2238TIP3   OH230166   3.678   4.471   7.918
 2238TIP3    H130167   3.591   4.426   7.927
 2238TIP3    H230168   3.743   4.397   7.924
 2239TIP3   OH230169   3.403   4.309   6.807
 2239TIP3    H130170   3.417   4.212   6.815
 2239TIP3    H230171   3.475   4.331   6.746
 2240TIP3   OH230172   3.530   4.372   7.291
 2240TIP3    H130173   3.628   4.384   7.307
 2240TIP3    H230174   3.499   4.367   7.382
 2241TIP3   OH230175   3.518   4.431   7.551
 2241TIP3    H130176   3.433   4.457   7.589
 2241TIP3    H230177   3.561   4.518   7.536
 2242TIP3   OH230178   1.952   4.283   7.891
 2242TIP3    H130179   2.026   4.272   7.955
 2242TIP3    H230180   1.896   4.205   7.910
 2243TIP3   OH230181   3.736   3.867   8.083
 2243TIP3    H130182   3.782   3.794   8.037
 2243TIP3    H230183   3.736   3.936   8.013
 2244TIP3   OH230184   3.428   4.031   6.817
 2244TIP3    H130185   3.502   4.006   6.877
 2244TIP3    H230186   3.444   3.972   6.742
 2245TIP3   OH230187   2.063   4.101   7.289
 2245TIP3    H130188   2.104   4.016   7.262
 2245TIP3    H230189   2.134   4.166   7.274
 2246TIP3   OH230190   1.908   4.408   7.334
 2246TIP3    H130191   1.968   4.384   7.260
 2246TIP3    H230192   1.949   4.490   7.363
 2247TIP3   OH230193   3.669   4.079   7.937
 2247TIP3    H130194   3.609   4.103   8.010
 2247TIP3    H230195   3.604   4.056   7.868
 2248TIP3   OH230196   1.894   4.079   6.736
 2248TIP3    H130197   1.799   4.073   6.715
 2248TIP3    H230198   1.932   4.013   6.675
 2249TIP3   OH230199   3.384   5.570   6.935
 2249TIP3    H130200   3.453   5.535   6.876
 2249TIP3    H230201   3.434   5.612   7.007
 2250TIP3   OH230202   1.920   3.889   7.565
 2250TIP3    H130203   1.841   3.851   7.607
 2250TIP3    H230204   1.889   3.965   7.513
 2251TIP3   OH230205   2.143   5.204   7.963
 2251TIP3    H130206   2.056   5.236   7.936
 2251TIP3    H230207   2.125   5.170   8.052
 2252TIP3   OH230208   2.422   5.356   7.626
 2252TIP3    H130209   2.422   5.449   7.593
 2252TIP3    H230210   2.518   5.340   7.623
 2253TIP3   OH230211   2.840   5.466   7.884
 2253TIP3    H130212   2.843   5.449   7.981
 2253TIP3    H230213   2.927   5.509   7.869
 2254TIP3   OH230214   3.052   5.637   7.840
 2254TIP3    H130215   3.130   5.600   7.794
 2254TIP3    H230216   3.091   5.678   7.920
 2255TIP3   OH230217   3.563   3.828   7.737
 2255TIP3    H130218   3.480   3.868   7.708
 2255TIP3    H230219   3.564   3.740   7.693
 2256TIP3   OH230220   2.156   5.661   7.604
 2256TIP3    H130221   2.078   5.713   7.574
 2256TIP3    H230222   2.157   5.689   7.697
 2257TIP3   OH230223   2.397   5.599   7.502
 2257TIP3    H130224   2.305   5.625   7.529
 2257TIP3    H230225   2.415   5.662   7.429
 2258TIP3   OH230226   2.877   5.571   7.424
 2258TIP3    H130227   2.816   5.611   7.360
 2258TIP3    H230228   2.893   5.646   7.484
 2259TIP3   OH230229   3.087   5.455   7.568
 2259TIP3    H130230   3.022   5.500   7.510
 2259TIP3    H230231   3.167   5.507   7.544
 2260TIP3   OH230232   3.346   5.578   7.538
 2260TIP3    H130233   3.368   5.656   7.484
 2260TIP3    H230234   3.387   5.509   7.482
 2261TIP3   OH230235   2.117   5.489   7.297
 2261TIP3    H130236   2.098   5.426   7.371
 2261TIP3    H230237   2.210   5.465   7.274
 2262TIP3   OH230238   2.343   5.409   7.175
 2262TIP3    H130239   2.329   5.314   7.192
 2262TIP3    H230240   2.431   5.419   7.217
 2263TIP3   OH230241   2.570   5.387   7.310
 2263TIP3    H130242   2.601   5.296   7.290
 2263TIP3    H230243   2.591   5.396   7.404
 2264TIP3   OH230244   2.876   3.949   7.098
 2264TIP3    H130245   2.809   3.891   7.141
 2264TIP3    H230246   2.959   3.902   7.109
 2265TIP3   OH230247   3.452   3.793   7.153
 2265TIP3    H130248   3.514   3.855   7.106
 2265TIP3    H230249   3.367   3.833   7.127
 2266TIP3   OH230250   3.607   3.944   6.987
 2266TIP3    H130251   3.667   3.874   6.950
 2266TIP3    H230252   3.673   4.015   7.004
 2267TIP3   OH230253   2.158   3.851   6.944
 2267TIP3    H130254   2.075   3.843   6.893
 2267TIP3    H230255   2.196   3.761   6.928
 2268TIP3   OH230256   2.063   3.875   6.580
 2268TIP3    H130257   2.098   3.884   6.489
 2268TIP3    H230258   2.001   3.801   6.572
 2269TIP3   OH230259   2.610   3.791   6.925
 2269TIP3    H130260   2.650   3.856   6.867
 2269TIP3    H230261   2.644   3.815   7.012
 2270TIP3   OH230262   3.183   3.851   7.087
 2270TIP3    H130263   3.195   3.857   6.991
 2270TIP3    H230264   3.131   3.768   7.096
 2271TIP3   OH230265   3.246   3.879   6.599
 2271TIP3    H130266   3.188   3.933   6.656
 2271TIP3    H230267   3.237   3.790   6.641
 2272TIP3   OH230268   2.056   5.442   6.630
 2272TIP3    H130269   1.965   5.437   6.593
 2272TIP3    H230270   2.075   5.535   6.614
 2273TIP3   OH230271   2.218   3.968   6.358
 2273TIP3    H130272   2.300   4.008   6.324
 2273TIP3    H230273   2.234   3.994   6.450
 2274TIP3   OH230274   2.741   4.088   6.555
 2274TIP3    H130275   2.758   4.025   6.626
 2274TIP3    H230276   2.754   4.170   6.608
 2275TIP3   OH230277   3.553   5.462   6.757
 2275TIP3    H130278   3.570   5.375   6.714
 2275TIP3    H230279   3.547   5.519   6.678
 2276TIP3   OH230280   2.123   3.915   7.887
 2276TIP3    H130281   2.075   3.830   7.893
 2276TIP3    H230282   2.205   3.898   7.938
 2277TIP3   OH230283   2.325   3.859   8.060
 2277TIP3    H130284   2.410   3.819   8.037
 2277TIP3    H230285   2.278   3.783   8.102
 2278TIP3   OH230286   3.200   3.745   8.085
 2278TIP3    H130287   3.205   3.716   8.178
 2278TIP3    H230288   3.295   3.746   8.061
 2279TIP3   OH230289   3.506   5.389   7.941
 2279TIP3    H130290   3.429   5.378   7.879
 2279TIP3    H230291   3.494   5.483   7.965
 2280TIP3   OH230292   4.978   4.779   6.917
 2280TIP3    H130293   4.977   4.872   6.947
 2280TIP3    H230294   4.910   4.785   6.847
 2281TIP3   OH230295   4.853   4.671   7.278
 2281TIP3    H130296   4.861   4.629   7.367
 2281TIP3    H230297   4.781   4.620   7.236
 2282TIP3   OH230298   4.063   4.652   7.413
 2282TIP3    H130299   4.051   4.573   7.470
 2282TIP3    H230300   4.109   4.712   7.475
 2283TIP3   OH230301   5.171   4.958   7.126
 2283TIP3    H130302   5.151   4.894   7.196
 2283TIP3    H230303   5.200   5.035   7.177
 2284TIP3   OH230304   4.158   5.141   7.282
 2284TIP3    H130305   4.113   5.056   7.262
 2284TIP3    H230306   4.249   5.111   7.267
 2285TIP3   OH230307   3.861   4.454   6.798
 2285TIP3    H130308   3.808   4.525   6.835
 2285TIP3    H230309   3.806   4.427   6.721
 2286TIP3   OH230310   3.902   4.701   7.066
 2286TIP3    H130311   3.951   4.619   7.091
 2286TIP3    H230312   3.972   4.762   7.039
 2287TIP3   OH230313   4.929   5.507   7.120
 2287TIP3    H130314   5.002   5.458   7.073
 2287TIP3    H230315   4.904   5.436   7.181
 2288TIP3   OH230316   4.688   4.939   7.335
 2288TIP3    H130317   4.734   4.874   7.278
 2288TIP3    H230318   4.765   4.975   7.385
 2289TIP3   OH230319   5.538   4.062   7.371
 2289TIP3    H130320   5.555   4.117   7.450
 2289TIP3    H230321   5.613   4.087   7.316
 2290TIP3   OH230322   5.037   4.386   7.353
 2290TIP3    H130323   5.048   4.292   7.376
 2290TIP3    H230324   4.974   4.377   7.279
 2291TIP3   OH230325   4.316   4.166   7.050
 2291TIP3    H130326   4.328   4.249   6.999
 2291TIP3    H230327   4.259   4.115   6.989
 2292TIP3   OH230328   3.983   4.456   7.158
 2292TIP3    H130329   4.043   4.405   7.215
 2292TIP3    H230330   3.997   4.411   7.072
 2293TIP3   OH230331   4.501   4.563   7.012
 2293TIP3    H130332   4.549   4.547   7.097
 2293TIP3    H230333   4.423   4.506   7.025
 2294TIP3   OH230334   5.555   4.225   7.607
 2294TIP3    H130335   5.513   4.303   7.564
 2294TIP3    H230336   5.573   4.263   7.695
 2295TIP3   OH230337   4.235   4.089   7.493
 2295TIP3    H130338   4.193   4.129   7.415
 2295TIP3    H230339   4.170   4.113   7.562
 2296TIP3   OH230340   4.893   5.020   6.818
 2296TIP3    H130341   4.910   5.013   6.721
 2296TIP3    H230342   4.891   5.116   6.826
 2297TIP3   OH230343   4.438   4.860   7.451
 2297TIP3    H130344   4.380   4.935   7.476
 2297TIP3    H230345   4.515   4.909   7.414
 2298TIP3   OH230346   5.231   4.126   7.115
 2298TIP3    H130347   5.241   4.144   7.209
 2298TIP3    H230348   5.319   4.150   7.083
 2299TIP3   OH230349   4.163   4.267   7.274
 2299TIP3    H130350   4.224   4.327   7.325
 2299TIP3    H230351   4.221   4.239   7.200
 2300TIP3   OH230352   4.289   5.063   7.563
 2300TIP3    H130353   4.270   5.147   7.517
 2300TIP3    H230354   4.205   5.052   7.613
 2301TIP3   OH230355   3.890   4.987   6.680
 2301TIP3    H130356   3.877   5.026   6.591
 2301TIP3    H230357   3.897   5.067   6.735
 2302TIP3   OH230358   5.255   5.166   7.319
 2302TIP3    H130359   5.168   5.201   7.348
 2302TIP3    H230360   5.291   5.248   7.283
 2303TIP3   OH230361   5.254   3.998   7.469
 2303TIP3    H130362   5.177   4.033   7.419
 2303TIP3    H230363   5.333   4.026   7.417
 2304TIP3   OH230364   4.562   3.826   7.208
 2304TIP3    H130365   4.540   3.731   7.211
 2304TIP3    H230366   4.475   3.864   7.237
 2305TIP3   OH230367   5.108   5.352   7.005
 2305TIP3    H130368   5.115   5.276   6.943
 2305TIP3    H230369   5.185   5.405   6.974
 2306TIP3   OH230370   5.206   5.152   6.849
 2306TIP3    H130371   5.210   5.082   6.779
 2306TIP3    H230372   5.189   5.094   6.925
 2307TIP3   OH230373   5.355   5.006   7.713
 2307TIP3    H130374   5.383   4.932   7.653
 2307TIP3    H230375   5.375   5.082   7.655
 2308TIP3   OH230376   4.788   4.690   6.679
 2308TIP3    H130377   4.739   4.748   6.618
 2308TIP3    H230378   4.872   4.680   6.628
 2309TIP3   OH230379   5.568   4.654   7.507
 2309TIP3    H130380   5.491   4.712   7.494
 2309TIP3    H230381   5.625   4.688   7.434
 2310TIP3   OH230382   5.215   4.685   6.800
 2310TIP3    H130383   5.149   4.733   6.855
 2310TIP3    H230384   5.262   4.634   6.869
 2311TIP3   OH230385   5.166   4.559   7.700
 2311TIP3    H130386   5.150   4.654   7.714
 2311TIP3    H230387   5.108   4.546   7.624
 2312TIP3   OH230388   4.339   4.772   6.978
 2312TIP3    H130389   4.303   4.737   6.894
 2312TIP3    H230390   4.405   4.703   6.999
 2313TIP3   OH230391   4.457   5.106   7.221
 2313TIP3    H130392   4.464   5.088   7.126
 2313TIP3    H230393   4.538   5.063   7.255
 2314TIP3   OH230394   4.376   4.629   7.314
 2314TIP3    H130395   4.372   4.665   7.225
 2314TIP3    H230396   4.403   4.707   7.368
 2315TIP3   OH230397   5.012   5.233   7.412
 2315TIP3    H130398   4.979   5.281   7.490
 2315TIP3    H230399   4.992   5.142   7.441
 2316TIP3   OH230400   4.418   5.045   7.817
 2316TIP3    H130401   4.378   5.128   7.853
 2316TIP3    H230402   4.389   5.047   7.724
 2317TIP3   OH230403   5.043   4.660   6.590
 2317TIP3    H130404   5.112   4.689   6.654
 2317TIP3    H230405   5.084   4.693   6.507
 2318TIP3   OH230406   4.153   4.726   7.666
 2318TIP3    H130407   4.176   4.808   7.712
 2318TIP3    H230408   4.094   4.687   7.733
 2319TIP3   OH230409   4.833   5.366   6.851
 2319TIP3    H130410   4.865   5.409   6.932
 2319TIP3    H230411   4.791   5.438   6.802
 2320TIP3   OH230412   4.264   5.263   7.907
 2320TIP3    H130413   4.269   5.297   7.816
 2320TIP3    H230414   4.167   5.242   7.916
 2321TIP3   OH230415   4.203   4.680   6.739
 2321TIP3    H130416   4.141   4.753   6.730
 2321TIP3    H230417   4.144   4.604   6.733
 2322TIP3   OH230418   3.865   4.915   7.625
 2322TIP3    H130419   3.825   4.903   7.538
 2322TIP3    H230420   3.880   4.820   7.649
 2323TIP3   OH230421   3.833   5.191   7.279
 2323TIP3    H130422   3.929   5.184   7.287
 2323TIP3    H230423   3.816   5.267   7.336
 2324TIP3   OH230424   5.630   5.272   7.882
 2324TIP3    H130425   5.628   5.175   7.885
 2324TIP3    H230426   5.544   5.292   7.925
 2325TIP3   OH230427   4.581   5.363   7.746
 2325TIP3    H130428   4.658   5.404   7.789
 2325TIP3    H230429   4.611   5.271   7.754
 2326TIP3   OH230430   4.755   5.581   6.676
 2326TIP3    H130431   4.687   5.594   6.607
 2326TIP3    H230432   4.760   5.670   6.718
 2327TIP3   OH230433   4.130   5.482   6.922
 2327TIP3    H130434   4.159   5.444   7.008
 2327TIP3    H230435   4.045   5.436   6.906
 2328TIP3   OH230436   5.020   5.534   6.747
 2328TIP3    H130437   4.926   5.528   6.720
 2328TIP3    H230438   5.041   5.439   6.759
 2329TIP3   OH230439   5.342   4.399   7.907
 2329TIP3    H130440   5.275   4.438   7.846
 2329TIP3    H230441   5.339   4.304   7.880
 2330TIP3   OH230442   4.070   5.058   7.714
 2330TIP3    H130443   4.080   5.014   7.801
 2330TIP3    H230444   3.989   5.015   7.679
 2331TIP3   OH230445   4.330   3.922   7.305
 2331TIP3    H130446   4.236   3.908   7.277
 2331TIP3    H230447   4.314   3.975   7.386
 2332TIP3   OH230448   4.818   3.877   7.632
 2332TIP3    H130449   4.854   3.809   7.692
 2332TIP3    H230450   4.722   3.876   7.654
 2333TIP3   OH230451   5.094   4.285   7.707
 2333TIP3    H130452   5.053   4.250   7.790
 2333TIP3    H230453   5.053   4.373   7.704
 2334TIP3   OH230454   5.218   4.761   6.385
 2334TIP3    H130455   5.188   4.731   6.299
 2334TIP3    H230456   5.231   4.856   6.367
 2335TIP3   OH230457   4.746   4.067   6.362
 2335TIP3    H130458   4.681   4.046   6.432
 2335TIP3    H230459   4.822   4.011   6.383
 2336TIP3   OH230460   4.353   4.382   7.434
 2336TIP3    H130461   4.278   4.404   7.493
 2336TIP3    H230462   4.368   4.469   7.391
 2337TIP3   OH230463   4.322   4.396   6.917
 2337TIP3    H130464   4.226   4.380   6.905
 2337TIP3    H230465   4.359   4.393   6.825
 2338TIP3   OH230466   4.878   4.426   6.733
 2338TIP3    H130467   4.880   4.521   6.707
 2338TIP3    H230468   4.961   4.397   6.691
 2339TIP3   OH230469   4.789   4.508   7.934
 2339TIP3    H130470   4.735   4.432   7.966
 2339TIP3    H230471   4.869   4.495   7.987
 2340TIP3   OH230472   4.917   4.407   7.100
 2340TIP3    H130473   4.960   4.488   7.068
 2340TIP3    H230474   4.971   4.339   7.056
 2341TIP3   OH230475   4.090   4.406   7.552
 2341TIP3    H130476   4.130   4.441   7.633
 2341TIP3    H230477   4.062   4.317   7.583
 2342TIP3   OH230478   3.792   4.138   7.023
 2342TIP3    H130479   3.865   4.129   7.087
 2342TIP3    H230480   3.835   4.158   6.939
 2343TIP3   OH230481   3.907   4.198   6.537
 2343TIP3    H130482   3.974   4.231   6.475
 2343TIP3    H230483   3.840   4.269   6.533
 2344TIP3   OH230484   4.919   4.564   7.518
 2344TIP3    H130485   4.969   4.491   7.474
 2344TIP3    H230486   4.853   4.516   7.573
 2345TIP3   OH230487   4.621   4.148   7.049
 2345TIP3    H130488   4.524   4.141   7.061
 2345TIP3    H230489   4.656   4.118   7.133
 2346TIP3   OH230490   4.067   4.326   6.909
 2346TIP3    H130491   3.996   4.365   6.853
 2346TIP3    H230492   4.086   4.239   6.867
 2347TIP3   OH230493   4.453   4.396   6.677
 2347TIP3    H130494   4.495   4.308   6.680
 2347TIP3    H230495   4.408   4.394   6.591
 2348TIP3   OH230496   5.037   4.102   7.346
 2348TIP3    H130497   4.970   4.092   7.416
 2348TIP3    H230498   5.003   4.049   7.272
 2349TIP3   OH230499   4.312   4.460   6.420
 2349TIP3    H130500   4.218   4.461   6.396
 2349TIP3    H230501   4.349   4.536   6.373
 2350TIP3   OH230502   5.334   5.649   8.006
 2350TIP3    H130503   5.360   5.668   7.914
 2350TIP3    H230504   5.416   5.675   8.052
 2351TIP3   OH230505   4.112   4.891   7.928
 2351TIP3    H130506   4.184   4.921   7.987
 2351TIP3    H230507   4.035   4.888   7.988
 2352TIP3   OH230508   4.674   4.480   7.191
 2352TIP3    H130509   4.756   4.443   7.151
 2352TIP3    H230510   4.650   4.406   7.249
 2353TIP3   OH230511   4.148   4.064   6.847
 2353TIP3    H130512   4.103   3.989   6.892
 2353TIP3    H230513   4.210   4.014   6.792
 2354TIP3   OH230514   4.610   4.273   7.429
 2354TIP3    H130515   4.524   4.320   7.427
 2354TIP3    H230516   4.658   4.324   7.496
 2355TIP3   OH230517   4.621   4.940   6.609
 2355TIP3    H130518   4.558   4.871   6.582
 2355TIP3    H230519   4.598   4.953   6.704
 2356TIP3   OH230520   5.387   4.853   7.500
 2356TIP3    H130521   5.433   4.906   7.429
 2356TIP3    H230522   5.299   4.846   7.460
 2357TIP3   OH230523   5.000   4.202   6.405
 2357TIP3    H130524   4.904   4.212   6.396
 2357TIP3    H230525   5.024   4.288   6.444
 2358TIP3   OH230526   4.781   4.833   7.704
 2358TIP3    H130527   4.769   4.814   7.799
 2358TIP3    H230528   4.797   4.929   7.711
 2359TIP3   OH230529   5.126   4.387   6.593
 2359TIP3    H130530   5.191   4.421   6.656
 2359TIP3    H230531   5.103   4.466   6.540
 2360TIP3   OH230532   4.162   4.848   7.201
 2360TIP3    H130533   4.229   4.834   7.132
 2360TIP3    H230534   4.165   4.766   7.251
 2361TIP3   OH230535   4.878   5.045   6.545
 2361TIP3    H130536   4.795   5.091   6.567
 2361TIP3    H230537   4.846   4.960   6.511
 2362TIP3   OH230538   3.828   4.670   7.743
 2362TIP3    H130539   3.829   4.603   7.815
 2362TIP3    H230540   3.788   4.621   7.669
 2363TIP3   OH230541   4.534   4.632   7.901
 2363TIP3    H130542   4.507   4.551   7.855
 2363TIP3    H230543   4.631   4.620   7.902
 2364TIP3   OH230544   5.072   5.188   7.722
 2364TIP3    H130545   4.974   5.180   7.735
 2364TIP3    H230546   5.094   5.235   7.803
 2365TIP3   OH230547   5.594   4.997   7.845
 2365TIP3    H130548   5.503   5.014   7.810
 2365TIP3    H230549   5.644   4.985   7.761
 2366TIP3   OH230550   5.130   4.756   7.310
 2366TIP3    H130551   5.038   4.731   7.291
 2366TIP3    H230552   5.178   4.686   7.263
 2367TIP3   OH230553   4.379   5.180   6.950
 2367TIP3    H130554   4.428   5.264   6.937
 2367TIP3    H230555   4.290   5.211   6.932
 2368TIP3   OH230556   4.005   4.647   6.363
 2368TIP3    H130557   4.022   4.735   6.396
 2368TIP3    H230558   3.910   4.640   6.389
 2369TIP3   OH230559   4.521   4.960   6.865
 2369TIP3    H130560   4.480   5.048   6.880
 2369TIP3    H230561   4.467   4.905   6.923
 2370TIP3   OH230562   4.579   5.412   7.465
 2370TIP3    H130563   4.662   5.463   7.451
 2370TIP3    H230564   4.593   5.380   7.556
 2371TIP3   OH230565   4.405   5.425   6.842
 2371TIP3    H130566   4.316   5.457   6.866
 2371TIP3    H230567   4.451   5.510   6.839
 2372TIP3   OH230568   4.910   4.957   7.486
 2372TIP3    H130569   4.852   4.900   7.541
 2372TIP3    H230570   4.978   4.893   7.462
 2373TIP3   OH230571   5.215   5.448   7.745
 2373TIP3    H130572   5.132   5.411   7.709
 2373TIP3    H230573   5.243   5.503   7.669
 2374TIP3   OH230574   4.052   4.173   7.689
 2374TIP3    H130575   3.996   4.217   7.755
 2374TIP3    H230576   4.034   4.081   7.712
 2375TIP3   OH230577   5.216   4.930   6.685
 2375TIP3    H130578   5.246   4.840   6.707
 2375TIP3    H230579   5.274   4.955   6.612
 2376TIP3   OH230580   3.984   5.337   7.501
 2376TIP3    H130581   4.056   5.283   7.538
 2376TIP3    H230582   3.945   5.380   7.579
 2377TIP3   OH230583   4.895   4.138   7.597
 2377TIP3    H130584   4.987   4.150   7.627
 2377TIP3    H230585   4.871   4.050   7.635
 2378TIP3   OH230586   4.660   4.291   6.825
 2378TIP3    H130587   4.752   4.295   6.789
 2378TIP3    H230588   4.664   4.215   6.886
 2379TIP3   OH230589   4.792   4.395   7.678
 2379TIP3    H130590   4.792   4.413   7.774
 2379TIP3    H230591   4.832   4.307   7.667
 2380TIP3   OH230592   4.724   3.979   6.855
 2380TIP3    H130593   4.713   4.009   6.948
 2380TIP3    H230594   4.818   3.958   6.851
 2381TIP3   OH230595   5.338   4.165   7.773
 2381TIP3    H130596   5.250   4.200   7.745
 2381TIP3    H230597   5.387   4.154   7.690
 2382TIP3   OH230598   5.219   4.495   7.176
 2382TIP3    H130599   5.160   4.446   7.238
 2382TIP3    H230600   5.307   4.470   7.213
 2383TIP3   OH230601   3.998   4.372   6.314
 2383TIP3    H130602   4.002   4.468   6.332
 2383TIP3    H230603   3.919   4.364   6.259
 2384TIP3   OH230604   5.311   5.441   7.313
 2384TIP3    H130605   5.315   5.507   7.240
 2384TIP3    H230606   5.407   5.439   7.334
 2385TIP3   OH230607   4.077   3.868   7.249
 2385TIP3    H130608   4.076   3.851   7.151
 2385TIP3    H230609   4.047   3.780   7.281
 2386TIP3   OH230610   3.931   5.270   6.843
 2386TIP3    H130611   3.851   5.313   6.874
 2386TIP3    H230612   3.943   5.318   6.758
 2387TIP3   OH230613   3.873   5.561   7.978
 2387TIP3    H130614   3.949   5.545   8.037
 2387TIP3    H230615   3.839   5.470   7.968
 2388TIP3   OH230616   4.376   5.375   8.165
 2388TIP3    H130617   4.470   5.361   8.143
 2388TIP3    H230618   4.334   5.340   8.084
 2389TIP3   OH230619   5.003   5.310   7.994
 2389TIP3    H130620   4.957   5.230   7.958
 2389TIP3    H230621   5.074   5.273   8.049
 2390TIP3   OH230622   3.858   4.894   8.054
 2390TIP3    H130623   3.819   4.805   8.051
 2390TIP3    H230624   3.817   4.936   7.975
 2391TIP3   OH230625   4.552   4.886   7.989
 2391TIP3    H130626   4.515   4.944   7.918
 2391TIP3    H230627   4.544   4.800   7.944
 2392TIP3   OH230628   5.107   4.890   7.761
 2392TIP3    H130629   5.189   4.944   7.765
 2392TIP3    H230630   5.045   4.964   7.754
 2393TIP3   OH230631   3.979   4.603   8.009
 2393TIP3    H130632   4.047   4.542   8.042
 2393TIP3    H230633   3.991   4.677   8.072
 2394TIP3   OH230634   4.423   4.757   6.527
 2394TIP3    H130635   4.373   4.686   6.572
 2394TIP3    H230636   4.497   4.712   6.484
 2395TIP3   OH230637   4.334   4.522   7.673
 2395TIP3    H130638   4.286   4.607   7.677
 2395TIP3    H230639   4.418   4.552   7.633
 2396TIP3   OH230640   4.895   4.781   8.076
 2396TIP3    H130641   4.976   4.737   8.047
 2396TIP3    H230642   4.851   4.717   8.135
 2397TIP3   OH230643   4.434   4.306   7.801
 2397TIP3    H130644   4.456   4.237   7.735
 2397TIP3    H230645   4.385   4.372   7.747
 2398TIP3   OH230646   4.492   4.104   7.605
 2398TIP3    H130647   4.552   4.147   7.540
 2398TIP3    H230648   4.405   4.116   7.561
 2399TIP3   OH230649   4.586   4.655   7.578
 2399TIP3    H130650   4.665   4.707   7.601
 2399TIP3    H230651   4.530   4.723   7.537
 2400TIP3   OH230652   5.002   4.429   8.129
 2400TIP3    H130653   5.009   4.345   8.180
 2400TIP3    H230654   5.095   4.451   8.118
 2401TIP3   OH230655   5.188   4.740   7.971
 2401TIP3    H130656   5.145   4.781   7.893
 2401TIP3    H230657   5.278   4.723   7.934
 2402TIP3   OH230658   4.263   4.370   8.028
 2402TIP3    H130659   4.187   4.316   7.996
 2402TIP3    H230660   4.325   4.356   7.954
 2403TIP3   OH230661   4.552   3.844   7.643
 2403TIP3    H130662   4.523   3.937   7.638
 2403TIP3    H230663   4.479   3.799   7.597
 2404TIP3   OH230664   4.646   4.297   8.025
 2404TIP3    H130665   4.586   4.284   8.100
 2404TIP3    H230666   4.591   4.260   7.953
 2405TIP3   OH230667   4.952   4.206   7.917
 2405TIP3    H130668   4.860   4.193   7.941
 2405TIP3    H230669   4.995   4.150   7.987
 2406TIP3   OH230670   5.039   4.037   8.096
 2406TIP3    H130671   5.066   3.945   8.117
 2406TIP3    H230672   5.044   4.085   8.182
 2407TIP3   OH230673   4.069   4.188   8.009
 2407TIP3    H130674   4.059   4.103   7.963
 2407TIP3    H230675   4.053   4.161   8.103
 2408TIP3   OH230676   4.526   3.781   7.918
 2408TIP3    H130677   4.577   3.697   7.924
 2408TIP3    H230678   4.538   3.800   7.823
 2409TIP3   OH230679   4.526   3.902   8.169
 2409TIP3    H130680   4.522   3.851   8.084
 2409TIP3    H230681   4.527   3.992   8.133
 2410TIP3   OH230682   4.516   5.690   6.456
 2410TIP3    H130683   4.569   5.626   6.405
 2410TIP3    H230684   4.484   5.751   6.388
 2411TIP3   OH230685   3.875   5.086   6.410
 2411TIP3    H130686   3.967   5.086   6.381
 2411TIP3    H230687   3.830   5.036   6.341
 2412TIP3   OH230688   3.765   5.602   6.848
 2412TIP3    H130689   3.680   5.556   6.828
 2412TIP3    H230690   3.793   5.555   6.929
 2413TIP3   OH230691   3.850   5.450   7.060
 2413TIP3    H130692   3.795   5.379   7.098
 2413TIP3    H230693   3.916   5.468   7.131
 2414TIP3   OH230694   5.585   5.503   7.335
 2414TIP3    H130695   5.614   5.508   7.428
 2414TIP3    H230696   5.614   5.589   7.302
 2415TIP3   OH230697   5.560   5.462   7.633
 2415TIP3    H130698   5.519   5.383   7.591
 2415TIP3    H230699   5.573   5.430   7.724
 2416TIP3   OH230700   5.427   5.050   8.142
 2416TIP3    H130701   5.343   5.061   8.193
 2416TIP3    H230702   5.470   5.137   8.152
 2417TIP3   OH230703   5.535   4.864   6.657
 2417TIP3    H130704   5.613   4.924   6.661
 2417TIP3    H230705   5.539   4.820   6.746
 2418TIP3   OH230706   5.572   4.705   6.871
 2418TIP3    H130707   5.493   4.653   6.896
 2418TIP3    H230708   5.633   4.691   6.946
 2419TIP3   OH230709   5.535   4.958   7.309
 2419TIP3    H130710   5.606   4.891   7.298
 2419TIP3    H230711   5.578   5.042   7.284
 2420TIP3   OH230712   5.400   5.244   7.574
 2420TIP3    H130713   5.324   5.272   7.628
 2420TIP3    H230714   5.356   5.220   7.489
 2421TIP3   OH230715   5.623   4.698   6.466
 2421TIP3    H130716   5.539   4.668   6.428
 2421TIP3    H230717   5.594   4.760   6.535
 2422TIP3   OH230718   5.375   4.537   6.951
 2422TIP3    H130719   5.365   4.448   6.911
 2422TIP3    H230720   5.324   4.531   7.034
 2423TIP3   OH230721   3.851   4.771   7.327
 2423TIP3    H130722   3.850   4.737   7.234
 2423TIP3    H230723   3.942   4.741   7.351
 2424TIP3   OH230724   5.459   4.740   7.892
 2424TIP3    H130725   5.518   4.661   7.890
 2424TIP3    H230726   5.518   4.815   7.866
 2425TIP3   OH230727   5.586   4.507   7.938
 2425TIP3    H130728   5.496   4.472   7.920
 2425TIP3    H230729   5.640   4.425   7.947
 2426TIP3   OH230730   5.351   4.319   6.767
 2426TIP3    H130731   5.281   4.253   6.780
 2426TIP3    H230732   5.379   4.297   6.677
 2427TIP3   OH230733   5.415   4.353   7.315
 2427TIP3    H130734   5.514   4.360   7.320
 2427TIP3    H230735   5.391   4.372   7.407
 2428TIP3   OH230736   5.403   4.439   7.574
 2428TIP3    H130737   5.331   4.469   7.631
 2428TIP3    H230738   5.454   4.522   7.559
 2429TIP3   OH230739   3.846   4.269   7.913
 2429TIP3    H130740   3.928   4.242   7.960
 2429TIP3    H230741   3.789   4.190   7.925
 2430TIP3   OH230742   5.620   3.863   8.089
 2430TIP3    H130743   5.662   3.788   8.042
 2430TIP3    H230744   5.618   3.932   8.019
 2431TIP3   OH230745   3.942   4.101   7.261
 2431TIP3    H130746   3.984   4.012   7.254
 2431TIP3    H230747   4.019   4.161   7.262
 2432TIP3   OH230748   3.787   4.401   7.332
 2432TIP3    H130749   3.830   4.361   7.254
 2432TIP3    H230750   3.838   4.483   7.338
 2433TIP3   OH230751   5.554   4.077   7.939
 2433TIP3    H130752   5.481   4.102   7.999
 2433TIP3    H230753   5.506   4.029   7.869
 2434TIP3   OH230754   3.809   4.055   6.748
 2434TIP3    H130755   3.727   4.098   6.723
 2434TIP3    H230756   3.865   4.081   6.672
 2435TIP3   OH230757   5.289   5.533   6.929
 2435TIP3    H130758   5.357   5.502   6.866
 2435TIP3    H230759   5.336   5.590   6.992
 2436TIP3   OH230760   3.787   3.888   7.551
 2436TIP3    H130761   3.720   3.858   7.615
 2436TIP3    H230762   3.742   3.959   7.503
 2437TIP3   OH230763   4.012   5.205   7.963
 2437TIP3    H130764   3.932   5.245   7.923
 2437TIP3    H230765   3.982   5.179   8.050
 2438TIP3   OH230766   4.306   5.354   7.617
 2438TIP3    H130767   4.314   5.447   7.586
 2438TIP3    H230768   4.400   5.340   7.639
 2439TIP3   OH230769   4.753   5.535   7.903
 2439TIP3    H130770   4.752   5.467   7.971
 2439TIP3    H230771   4.847   5.530   7.877
 2440TIP3   OH230772   4.981   5.676   7.824
 2440TIP3    H130773   5.049   5.607   7.813
 2440TIP3    H230774   4.984   5.692   7.920
 2441TIP3   OH230775   5.464   3.836   7.739
 2441TIP3    H130776   5.384   3.875   7.700
 2441TIP3    H230777   5.462   3.745   7.704
 2442TIP3   OH230778   4.047   5.661   7.585
 2442TIP3    H130779   3.972   5.718   7.555
 2442TIP3    H230780   4.045   5.683   7.680
 2443TIP3   OH230781   4.307   5.610   7.508
 2443TIP3    H130782   4.213   5.623   7.535
 2443TIP3    H230783   4.314   5.671   7.432
 2444TIP3   OH230784   4.773   5.583   7.407
 2444TIP3    H130785   4.748   5.641   7.334
 2444TIP3    H230786   4.789   5.648   7.479
 2445TIP3   OH230787   4.963   5.443   7.580
 2445TIP3    H130788   4.899   5.485   7.519
 2445TIP3    H230789   5.044   5.482   7.546
 2446TIP3   OH230790   5.270   5.596   7.529
 2446TIP3    H130791   5.262   5.685   7.489
 2446TIP3    H230792   5.281   5.544   7.447
 2447TIP3   OH230793   4.011   5.501   7.280
 2447TIP3    H130794   4.000   5.449   7.363
 2447TIP3    H230795   4.098   5.466   7.249
 2448TIP3   OH230796   4.226   5.388   7.163
 2448TIP3    H130797   4.221   5.300   7.205
 2448TIP3    H230798   4.315   5.420   7.191
 2449TIP3   OH230799   4.484   5.441   7.221
 2449TIP3    H130800   4.497   5.346   7.211
 2449TIP3    H230801   4.503   5.448   7.317
 2450TIP3   OH230802   4.834   3.978   7.157
 2450TIP3    H130803   4.756   3.947   7.205
 2450TIP3    H230804   4.856   3.898   7.106
 2451TIP3   OH230805   5.342   3.782   7.154
 2451TIP3    H130806   5.395   3.857   7.116
 2451TIP3    H230807   5.253   3.818   7.150
 2452TIP3   OH230808   5.490   3.934   7.000
 2452TIP3    H130809   5.551   3.874   6.954
 2452TIP3    H230810   5.551   4.007   7.025
 2453TIP3   OH230811   4.042   3.836   6.982
 2453TIP3    H130812   3.950   3.837   6.949
 2453TIP3    H230813   4.076   3.752   6.945
 2454TIP3   OH230814   3.923   3.823   6.543
 2454TIP3    H130815   3.961   3.897   6.493
 2454TIP3    H230816   3.853   3.865   6.594
 2455TIP3   OH230817   4.444   3.853   6.932
 2455TIP3    H130818   4.513   3.870   6.866
 2455TIP3    H230819   4.498   3.851   7.013
 2456TIP3   OH230820   3.919   5.446   6.639
 2456TIP3    H130821   3.874   5.428   6.554
 2456TIP3    H230822   3.862   5.517   6.672
 2457TIP3   OH230823   4.594   4.102   6.621
 2457TIP3    H130824   4.609   4.025   6.679
 2457TIP3    H230825   4.660   4.162   6.655
 2458TIP3   OH230826   5.458   5.454   6.733
 2458TIP3    H130827   5.436   5.382   6.671
 2458TIP3    H230828   5.443   5.532   6.674
 2459TIP3   OH230829   4.015   3.920   7.874
 2459TIP3    H130830   3.965   3.836   7.884
 2459TIP3    H230831   4.089   3.906   7.938
 2460TIP3   OH230832   4.218   3.861   8.065
 2460TIP3    H130833   4.296   3.812   8.034
 2460TIP3    H230834   4.174   3.793   8.118
 2461TIP3   OH230835   4.127   5.532   6.324
 2461TIP3    H130836   4.087   5.540   6.411
 2461TIP3    H230837   4.221   5.515   6.341
 2462TIP3   OH230838   5.072   3.773   8.118
 2462TIP3    H130839   5.088   3.727   8.203
 2462TIP3    H230840   5.158   3.757   8.073
 2463TIP3   OH230841   5.388   5.386   7.944
 2463TIP3    H130842   5.305   5.387   7.890
 2463TIP3    H230843   5.386   5.477   7.977
 2464TIP3   OH230844   6.839   4.760   6.924
 2464TIP3    H130845   6.839   4.854   6.946
 2464TIP3    H230846   6.770   4.759   6.855
 2465TIP3   OH230847   6.718   4.670   7.281
 2465TIP3    H130848   6.738   4.612   7.357
 2465TIP3    H230849   6.658   4.618   7.225
 2466TIP3   OH230850   5.952   4.671   7.409
 2466TIP3    H130851   5.938   4.594   7.467
 2466TIP3    H230852   6.023   4.717   7.457
 2467TIP3   OH230853   7.100   4.974   7.122
 2467TIP3    H130854   7.110   4.908   7.191
 2467TIP3    H230855   7.061   5.049   7.168
 2468TIP3   OH230856   6.067   5.135   7.241
 2468TIP3    H130857   6.042   5.040   7.236
 2468TIP3    H230858   6.163   5.122   7.226
 2469TIP3   OH230859   5.712   4.434   6.802
 2469TIP3    H130860   5.719   4.528   6.780
 2469TIP3    H230861   5.626   4.430   6.846
 2470TIP3   OH230862   5.758   4.670   7.056
 2470TIP3    H130863   5.810   4.591   7.085
 2470TIP3    H230864   5.826   4.726   7.014
 2471TIP3   OH230865   6.769   5.487   7.078
 2471TIP3    H130866   6.852   5.446   7.045
 2471TIP3    H230867   6.752   5.429   7.153
 2472TIP3   OH230868   6.553   4.941   7.365
 2472TIP3    H130869   6.574   4.878   7.294
 2472TIP3    H230870   6.642   4.958   7.402
 2473TIP3   OH230871   7.426   4.124   7.357
 2473TIP3    H130872   7.437   4.165   7.445
 2473TIP3    H230873   7.503   4.158   7.311
 2474TIP3   OH230874   6.885   4.396   7.371
 2474TIP3    H130875   6.900   4.303   7.393
 2474TIP3    H230876   6.869   4.389   7.276
 2475TIP3   OH230877   6.187   4.163   7.053
 2475TIP3    H130878   6.209   4.250   7.013
 2475TIP3    H230879   6.138   4.123   6.978
 2476TIP3   OH230880   6.970   4.175   6.921
 2476TIP3    H130881   7.024   4.153   7.000
 2476TIP3    H230882   7.030   4.237   6.876
 2477TIP3   OH230883   5.877   4.454   7.157
 2477TIP3    H130884   5.936   4.398   7.211
 2477TIP3    H230885   5.887   4.410   7.070
 2478TIP3   OH230886   6.351   4.598   7.090
 2478TIP3    H130887   6.437   4.560   7.111
 2478TIP3    H230888   6.314   4.524   7.037
 2479TIP3   OH230889   7.455   4.211   7.633
 2479TIP3    H130890   7.397   4.290   7.623
 2479TIP3    H230891   7.502   4.229   7.716
 2480TIP3   OH230892   6.107   4.088   7.492
 2480TIP3    H130893   6.065   4.130   7.415
 2480TIP3    H230894   6.038   4.102   7.560
 2481TIP3   OH230895   6.799   5.030   6.845
 2481TIP3    H130896   6.790   5.022   6.748
 2481TIP3    H230897   6.752   5.114   6.860
 2482TIP3   OH230898   6.325   4.836   7.482
 2482TIP3    H130899   6.259   4.904   7.508
 2482TIP3    H230900   6.387   4.893   7.430
 2483TIP3   OH230901   7.137   4.179   7.137
 2483TIP3    H130902   7.093   4.145   7.216
 2483TIP3    H230903   7.226   4.200   7.169
 2484TIP3   OH230904   6.051   4.267   7.269
 2484TIP3    H130905   6.113   4.332   7.308
 2484TIP3    H230906   6.102   4.232   7.192
 2485TIP3   OH230907   6.176   5.050   7.556
 2485TIP3    H130908   6.165   5.130   7.502
 2485TIP3    H230909   6.091   5.052   7.607
 2486TIP3   OH230910   5.756   5.019   6.632
 2486TIP3    H130911   5.764   5.063   6.546
 2486TIP3    H230912   5.767   5.092   6.697
 2487TIP3   OH230913   7.157   5.186   7.352
 2487TIP3    H130914   7.063   5.218   7.354
 2487TIP3    H230915   7.199   5.262   7.309
 2488TIP3   OH230916   7.184   4.021   7.459
 2488TIP3    H130917   7.102   4.049   7.414
 2488TIP3    H230918   7.254   4.061   7.405
 2489TIP3   OH230919   6.449   3.822   7.208
 2489TIP3    H130920   6.416   3.732   7.222
 2489TIP3    H230921   6.373   3.873   7.245
 2490TIP3   OH230922   6.984   5.349   6.995
 2490TIP3    H130923   7.014   5.275   6.938
 2490TIP3    H230924   7.055   5.415   6.979
 2491TIP3   OH230925   7.091   5.153   6.841
 2491TIP3    H130926   7.014   5.096   6.821
 2491TIP3    H230927   7.140   5.099   6.905
 2492TIP3   OH230928   7.216   4.995   7.710
 2492TIP3    H130929   7.248   4.939   7.636
 2492TIP3    H230930   7.218   5.083   7.668
 2493TIP3   OH230931   6.713   4.667   6.681
 2493TIP3    H130932   6.643   4.734   6.666
 2493TIP3    H230933   6.788   4.703   6.629
 2494TIP3   OH230934   7.415   4.643   7.499
 2494TIP3    H130935   7.351   4.717   7.505
 2494TIP3    H230936   7.465   4.672   7.420
 2495TIP3   OH230937   7.100   4.757   6.799
 2495TIP3    H130938   7.014   4.762   6.846
 2495TIP3    H230939   7.143   4.681   6.841
 2496TIP3   OH230940   7.063   4.550   7.701
 2496TIP3    H130941   7.070   4.646   7.694
 2496TIP3    H230942   6.993   4.531   7.636
 2497TIP3   OH230943   6.191   4.763   6.957
 2497TIP3    H130944   6.172   4.717   6.872
 2497TIP3    H230945   6.260   4.706   6.998
 2498TIP3   OH230946   6.345   5.102   7.222
 2498TIP3    H130947   6.366   5.113   7.128
 2498TIP3    H230948   6.429   5.069   7.258
 2499TIP3   OH230949   6.241   4.633   7.335
 2499TIP3    H130950   6.269   4.646   7.242
 2499TIP3    H230951   6.280   4.711   7.381
 2500TIP3   OH230952   6.905   5.233   7.402
 2500TIP3    H130953   6.870   5.301   7.463
 2500TIP3    H230954   6.870   5.152   7.442
 2501TIP3   OH230955   6.343   5.083   7.767
 2501TIP3    H130956   6.279   5.142   7.812
 2501TIP3    H230957   6.295   5.070   7.681
 2502TIP3   OH230958   6.972   4.669   6.570
 2502TIP3    H130959   7.018   4.700   6.651
 2502TIP3    H230960   7.019   4.725   6.503
 2503TIP3   OH230961   6.049   4.712   7.674
 2503TIP3    H130962   6.050   4.804   7.704
 2503TIP3    H230963   5.978   4.678   7.731
 2504TIP3   OH230964   6.667   5.331   6.867
 2504TIP3    H130965   6.695   5.399   6.932
 2504TIP3    H230966   6.639   5.388   6.794
 2505TIP3   OH230967   6.174   5.260   7.884
 2505TIP3    H130968   6.156   5.300   7.796
 2505TIP3    H230969   6.081   5.240   7.909
 2506TIP3   OH230970   7.309   3.822   6.494
 2506TIP3    H130971   7.213   3.803   6.502
 2506TIP3    H230972   7.311   3.914   6.525
 2507TIP3   OH230973   6.088   4.645   6.726
 2507TIP3    H130974   6.062   4.734   6.692
 2507TIP3    H230975   6.060   4.587   6.654
 2508TIP3   OH230976   5.741   4.926   7.636
 2508TIP3    H130977   5.702   4.906   7.550
 2508TIP3    H230978   5.766   4.836   7.664
 2509TIP3   OH230979   5.697   5.201   7.290
 2509TIP3    H130980   5.790   5.173   7.282
 2509TIP3    H230981   5.706   5.277   7.350
 2510TIP3   OH230982   7.501   5.304   7.870
 2510TIP3    H130983   7.506   5.208   7.865
 2510TIP3    H230984   7.417   5.316   7.922
 2511TIP3   OH230985   6.619   5.190   7.769
 2511TIP3    H130986   6.621   5.278   7.811
 2511TIP3    H230987   6.524   5.166   7.772
 2512TIP3   OH230988   6.639   5.584   6.700
 2512TIP3    H130989   6.649   5.584   6.602
 2512TIP3    H230990   6.669   5.673   6.727
 2513TIP3   OH230991   6.015   5.461   6.920
 2513TIP3    H130992   6.070   5.457   7.003
 2513TIP3    H230993   5.932   5.426   6.957
 2514TIP3   OH230994   6.925   5.487   6.726
 2514TIP3    H130995   6.831   5.507   6.711
 2514TIP3    H230996   6.928   5.449   6.814
 2515TIP3   OH230997   7.210   4.421   7.905
 2515TIP3    H130998   7.161   4.449   7.825
 2515TIP3    H230999   7.234   4.328   7.882
 2516TIP3   OH231000   5.959   5.064   7.711
 2516TIP3    H131001   5.969   5.031   7.803
 2516TIP3    H231002   5.871   5.027   7.687
 2517TIP3   OH231003   6.230   3.929   7.304
 2517TIP3    H131004   6.144   3.916   7.260
 2517TIP3    H231005   6.203   3.982   7.382
 2518TIP3   OH231006   6.707   3.867   7.642
 2518TIP3    H131007   6.762   3.811   7.701
 2518TIP3    H231008   6.616   3.856   7.678
 2519TIP3   OH231009   6.976   4.288   7.711
 2519TIP3    H131010   6.936   4.231   7.781
 2519TIP3    H231011   6.985   4.369   7.764
 2520TIP3   OH231012   6.229   4.395   7.439
 2520TIP3    H131013   6.146   4.402   7.490
 2520TIP3    H231014   6.235   4.487   7.403
 2521TIP3   OH231015   6.230   4.395   6.928
 2521TIP3    H131016   6.140   4.412   6.898
 2521TIP3    H231017   6.269   4.359   6.846
 2522TIP3   OH231018   6.785   4.425   6.743
 2522TIP3    H131019   6.771   4.522   6.729
 2522TIP3    H231020   6.868   4.407   6.695
 2523TIP3   OH231021   6.692   4.522   7.925
 2523TIP3    H131022   6.630   4.450   7.950
 2523TIP3    H231023   6.758   4.506   7.995
 2524TIP3   OH231024   6.853   4.430   7.085
 2524TIP3    H131025   6.833   4.510   7.032
 2524TIP3    H231026   6.877   4.368   7.013
 2525TIP3   OH231027   5.986   4.414   7.560
 2525TIP3    H131028   6.011   4.454   7.644
 2525TIP3    H231029   5.951   4.327   7.589
 2526TIP3   OH231030   5.673   4.127   7.028
 2526TIP3    H131031   5.754   4.119   7.081
 2526TIP3    H231032   5.702   4.174   6.947
 2527TIP3   OH231033   6.799   4.574   7.547
 2527TIP3    H131034   6.853   4.516   7.487
 2527TIP3    H231035   6.742   4.505   7.587
 2528TIP3   OH231036   6.484   4.160   7.031
 2528TIP3    H131037   6.389   4.164   7.051
 2528TIP3    H231038   6.523   4.140   7.117
 2529TIP3   OH231039   5.932   4.326   6.922
 2529TIP3    H131040   5.868   4.350   6.851
 2529TIP3    H231041   5.977   4.247   6.886
 2530TIP3   OH231042   6.289   4.320   6.673
 2530TIP3    H131043   6.386   4.319   6.677
 2530TIP3    H231044   6.272   4.395   6.614
 2531TIP3   OH231045   6.947   4.086   7.339
 2531TIP3    H131046   6.873   4.088   7.402
 2531TIP3    H231047   6.908   4.030   7.269
 2532TIP3   OH231048   6.207   4.462   6.421
 2532TIP3    H131049   6.112   4.468   6.400
 2532TIP3    H231050   6.238   4.404   6.349
 2533TIP3   OH231051   7.200   5.642   8.006
 2533TIP3    H131052   7.228   5.695   7.929
 2533TIP3    H231053   7.282   5.643   8.059
 2534TIP3   OH231054   5.985   4.919   7.937
 2534TIP3    H131055   6.060   4.936   7.998
 2534TIP3    H231056   5.914   4.892   7.999
 2535TIP3   OH231057   6.583   4.438   7.183
 2535TIP3    H131058   6.676   4.413   7.168
 2535TIP3    H231059   6.548   4.357   7.224
 2536TIP3   OH231060   6.043   4.072   6.847
 2536TIP3    H131061   5.993   3.998   6.889
 2536TIP3    H231062   6.102   4.022   6.789
 2537TIP3   OH231063   6.449   4.251   7.424
 2537TIP3    H131064   6.364   4.302   7.420
 2537TIP3    H231065   6.505   4.308   7.480
 2538TIP3   OH231066   6.545   4.869   6.664
 2538TIP3    H131067   6.465   4.833   6.620
 2538TIP3    H231068   6.501   4.924   6.733
 2539TIP3   OH231069   7.256   4.855   7.493
 2539TIP3    H131070   7.307   4.906   7.427
 2539TIP3    H231071   7.169   4.846   7.448
 2540TIP3   OH231072   6.704   4.936   7.813
 2540TIP3    H131073   6.619   4.920   7.857
 2540TIP3    H231074   6.690   5.032   7.792
 2541TIP3   OH231075   7.020   4.383   6.594
 2541TIP3    H131076   7.096   4.374   6.653
 2541TIP3    H231077   7.022   4.478   6.570
 2542TIP3   OH231078   6.053   4.854   7.205
 2542TIP3    H131079   6.105   4.830   7.126
 2542TIP3    H231080   6.027   4.768   7.241
 2543TIP3   OH231081   6.757   5.005   6.569
 2543TIP3    H131082   6.720   5.088   6.536
 2543TIP3    H231083   6.679   4.947   6.578
 2544TIP3   OH231084   5.737   4.677   7.734
 2544TIP3    H131085   5.728   4.622   7.814
 2544TIP3    H231086   5.679   4.632   7.669
 2545TIP3   OH231087   6.435   4.633   7.902
 2545TIP3    H131088   6.376   4.589   7.838
 2545TIP3    H231089   6.517   4.580   7.893
 2546TIP3   OH231090   6.927   5.164   7.768
 2546TIP3    H131091   6.848   5.185   7.716
 2546TIP3    H231092   6.902   5.204   7.854
 2547TIP3   OH231093   7.441   4.395   6.623
 2547TIP3    H131094   7.430   4.375   6.527
 2547TIP3    H231095   7.388   4.478   6.623
 2548TIP3   OH231096   7.463   4.974   7.842
 2548TIP3    H131097   7.370   4.992   7.816
 2548TIP3    H231098   7.507   4.966   7.755
 2549TIP3   OH231099   7.309   5.282   6.663
 2549TIP3    H131100   7.313   5.204   6.723
 2549TIP3    H231101   7.223   5.264   6.621
 2550TIP3   OH231102   7.033   4.758   7.342
 2550TIP3    H131103   6.942   4.756   7.310
 2550TIP3    H231104   7.068   4.681   7.291
 2551TIP3   OH231105   6.252   5.192   6.938
 2551TIP3    H131106   6.288   5.283   6.923
 2551TIP3    H231107   6.164   5.201   6.902
 2552TIP3   OH231108   5.877   4.635   6.404
 2552TIP3    H131109   5.910   4.720   6.371
 2552TIP3    H231110   5.781   4.655   6.412
 2553TIP3   OH231111   6.400   4.973   6.872
 2553TIP3    H131112   6.346   5.053   6.889
 2553TIP3    H231113   6.356   4.905   6.926
 2554TIP3   OH231114   6.456   5.380   7.578
 2554TIP3    H131115   6.523   5.443   7.546
 2554TIP3    H231116   6.505   5.335   7.648
 2555TIP3   OH231117   6.300   5.454   6.875
 2555TIP3    H131118   6.207   5.476   6.859
 2555TIP3    H231119   6.339   5.544   6.878
 2556TIP3   OH231120   6.796   4.972   7.491
 2556TIP3    H131121   6.793   4.938   7.582
 2556TIP3    H231122   6.873   4.925   7.455
 2557TIP3   OH231123   7.071   5.420   7.753
 2557TIP3    H131124   6.994   5.363   7.733
 2557TIP3    H231125   7.076   5.478   7.673
 2558TIP3   OH231126   5.919   4.161   7.685
 2558TIP3    H131127   5.860   4.211   7.744
 2558TIP3    H231128   5.886   4.070   7.702
 2559TIP3   OH231129   5.863   5.319   7.507
 2559TIP3    H131130   5.929   5.249   7.521
 2559TIP3    H231131   5.889   5.381   7.577
 2560TIP3   OH231132   6.332   5.111   6.488
 2560TIP3    H131133   6.281   5.059   6.552
 2560TIP3    H231134   6.346   5.195   6.532
 2561TIP3   OH231135   6.044   4.873   6.572
 2561TIP3    H131136   5.947   4.887   6.579
 2561TIP3    H231137   6.064   4.943   6.506
 2562TIP3   OH231138   6.763   4.144   7.604
 2562TIP3    H131139   6.854   4.158   7.634
 2562TIP3    H231140   6.746   4.052   7.632
 2563TIP3   OH231141   6.894   4.081   6.606
 2563TIP3    H131142   6.974   4.130   6.580
 2563TIP3    H231143   6.886   4.117   6.696
 2564TIP3   OH231144   6.559   4.275   6.756
 2564TIP3    H131145   6.635   4.339   6.752
 2564TIP3    H231146   6.551   4.258   6.851
 2565TIP3   OH231147   6.662   4.384   7.675
 2565TIP3    H131148   6.663   4.388   7.771
 2565TIP3    H231149   6.698   4.294   7.656
 2566TIP3   OH231150   6.654   3.977   6.846
 2566TIP3    H131151   6.602   4.026   6.914
 2566TIP3    H231152   6.734   4.032   6.842
 2567TIP3   OH231153   6.232   4.070   6.524
 2567TIP3    H131154   6.209   4.148   6.577
 2567TIP3    H231155   6.316   4.045   6.563
 2568TIP3   OH231156   7.211   4.155   7.783
 2568TIP3    H131157   7.130   4.196   7.747
 2568TIP3    H231158   7.272   4.151   7.707
 2569TIP3   OH231159   7.093   4.538   7.169
 2569TIP3    H131160   7.012   4.484   7.171
 2569TIP3    H231161   7.155   4.480   7.221
 2570TIP3   OH231162   7.240   5.461   7.334
 2570TIP3    H131163   7.223   5.530   7.266
 2570TIP3    H231164   7.337   5.470   7.348
 2571TIP3   OH231165   5.979   3.871   7.237
 2571TIP3    H131166   5.969   3.866   7.139
 2571TIP3    H231167   5.944   3.783   7.264
 2572TIP3   OH231168   5.813   5.247   6.793
 2572TIP3    H131169   5.753   5.322   6.804
 2572TIP3    H231170   5.897   5.290   6.777
 2573TIP3   OH231171   5.760   5.566   7.973
 2573TIP3    H131172   5.831   5.556   8.042
 2573TIP3    H231173   5.729   5.473   7.969
 2574TIP3   OH231174   6.274   5.400   8.149
 2574TIP3    H131175   6.363   5.361   8.155
 2574TIP3    H231176   6.241   5.357   8.068
 2575TIP3   OH231177   6.856   5.291   7.997
 2575TIP3    H131178   6.838   5.202   8.037
 2575TIP3    H231179   6.947   5.306   8.030
 2576TIP3   OH231180   5.733   4.899   8.057
 2576TIP3    H131181   5.697   4.810   8.051
 2576TIP3    H231182   5.695   4.941   7.976
 2577TIP3   OH231183   6.414   4.900   7.947
 2577TIP3    H131184   6.386   4.962   7.875
 2577TIP3    H231185   6.418   4.811   7.904
 2578TIP3   OH231186   6.985   4.880   7.769
 2578TIP3    H131187   7.078   4.911   7.754
 2578TIP3    H231188   6.947   4.971   7.778
 2579TIP3   OH231189   5.901   4.607   8.004
 2579TIP3    H131190   5.966   4.544   8.036
 2579TIP3    H231191   5.903   4.673   8.077
 2580TIP3   OH231192   6.339   4.781   6.519
 2580TIP3    H131193   6.253   4.818   6.547
 2580TIP3    H231194   6.311   4.697   6.479
 2581TIP3   OH231195   6.265   4.551   7.708
 2581TIP3    H131196   6.186   4.607   7.705
 2581TIP3    H231197   6.313   4.589   7.633
 2582TIP3   OH231198   6.457   4.571   6.258
 2582TIP3    H131199   6.385   4.510   6.230
 2582TIP3    H231200   6.471   4.538   6.348
 2583TIP3   OH231201   6.759   4.778   8.074
 2583TIP3    H131202   6.855   4.768   8.079
 2583TIP3    H231203   6.726   4.715   8.141
 2584TIP3   OH231204   6.326   4.309   7.802
 2584TIP3    H131205   6.349   4.245   7.731
 2584TIP3    H231206   6.318   4.393   7.753
 2585TIP3   OH231207   6.350   4.110   7.621
 2585TIP3    H131208   6.389   4.140   7.536
 2585TIP3    H231209   6.254   4.117   7.600
 2586TIP3   OH231210   6.512   4.692   7.633
 2586TIP3    H131211   6.574   4.655   7.569
 2586TIP3    H231212   6.456   4.749   7.576
 2587TIP3   OH231213   6.902   4.406   8.127
 2587TIP3    H131214   6.896   4.316   8.165
 2587TIP3    H231215   6.998   4.417   8.123
 2588TIP3   OH231216   7.055   4.726   7.973
 2588TIP3    H131217   7.062   4.784   7.894
 2588TIP3    H231218   7.143   4.683   7.966
 2589TIP3   OH231219   6.159   4.368   8.031
 2589TIP3    H131220   6.084   4.313   7.997
 2589TIP3    H231221   6.216   4.374   7.952
 2590TIP3   OH231222   6.427   3.843   7.650
 2590TIP3    H131223   6.405   3.938   7.641
 2590TIP3    H231224   6.360   3.803   7.593
 2591TIP3   OH231225   6.539   4.305   8.015
 2591TIP3    H131226   6.502   4.289   8.103
 2591TIP3    H231227   6.477   4.252   7.961
 2592TIP3   OH231228   6.829   4.205   7.911
 2592TIP3    H131229   6.737   4.209   7.939
 2592TIP3    H231230   6.865   4.150   7.984
 2593TIP3   OH231231   6.915   4.037   8.097
 2593TIP3    H131232   6.938   3.943   8.110
 2593TIP3    H231233   6.918   4.078   8.186
 2594TIP3   OH231234   5.949   4.194   8.020
 2594TIP3    H131235   5.945   4.113   7.967
 2594TIP3    H231236   5.932   4.159   8.111
 2595TIP3   OH231237   6.405   3.781   7.913
 2595TIP3    H131238   6.479   3.720   7.899
 2595TIP3    H231239   6.396   3.813   7.820
 2596TIP3   OH231240   6.395   3.902   8.183
 2596TIP3    H131241   6.399   3.861   8.094
 2596TIP3    H231242   6.364   3.992   8.162
 2597TIP3   OH231243   5.641   5.597   6.877
 2597TIP3    H131244   5.576   5.541   6.829
 2597TIP3    H231245   5.676   5.537   6.945
 2598TIP3   OH231246   5.754   5.433   7.066
 2598TIP3    H131247   5.685   5.372   7.098
 2598TIP3    H231248   5.799   5.453   7.151
 2599TIP3   OH231249   7.524   5.492   7.373
 2599TIP3    H131250   7.526   5.492   7.470
 2599TIP3    H231251   7.536   5.588   7.359
 2600TIP3   OH231252   7.434   5.474   7.665
 2600TIP3    H131253   7.398   5.404   7.608
 2600TIP3    H231254   7.460   5.419   7.743
 2601TIP3   OH231255   7.294   5.055   8.120
 2601TIP3    H131256   7.219   5.067   8.183
 2601TIP3    H231257   7.338   5.142   8.131
 2602TIP3   OH231258   7.370   4.970   6.777
 2602TIP3    H131259   7.362   4.929   6.689
 2602TIP3    H231260   7.317   4.906   6.827
 2603TIP3   OH231261   7.435   4.695   6.901
 2603TIP3    H131262   7.359   4.643   6.934
 2603TIP3    H231263   7.495   4.698   6.978
 2604TIP3   OH231264   7.461   4.967   7.366
 2604TIP3    H131265   7.515   4.941   7.290
 2604TIP3    H231266   7.458   5.064   7.352
 2605TIP3   OH231267   7.286   5.239   7.582
 2605TIP3    H131268   7.223   5.296   7.629
 2605TIP3    H231269   7.243   5.223   7.495
 2606TIP3   OH231270   7.288   4.598   6.537
 2606TIP3    H131271   7.269   4.624   6.444
 2606TIP3    H231272   7.358   4.662   6.558
 2607TIP3   OH231273   7.360   4.387   6.332
 2607TIP3    H131274   7.335   4.475   6.301
 2607TIP3    H231275   7.277   4.337   6.333
 2608TIP3   OH231276   7.248   4.503   6.928
 2608TIP3    H131277   7.233   4.409   6.903
 2608TIP3    H231278   7.200   4.506   7.013
 2609TIP3   OH231279   5.724   4.759   7.309
 2609TIP3    H131280   5.723   4.728   7.216
 2609TIP3    H231281   5.818   4.739   7.331
 2610TIP3   OH231282   7.322   4.732   7.900
 2610TIP3    H131283   7.384   4.656   7.914
 2610TIP3    H231284   7.381   4.810   7.885
 2611TIP3   OH231285   7.459   4.510   7.930
 2611TIP3    H131286   7.363   4.493   7.918
 2611TIP3    H231287   7.492   4.418   7.939
 2612TIP3   OH231288   7.205   4.268   6.801
 2612TIP3    H131289   7.217   4.171   6.790
 2612TIP3    H231290   7.287   4.299   6.760
 2613TIP3   OH231291   7.239   4.370   7.316
 2613TIP3    H131292   7.336   4.365   7.296
 2613TIP3    H231293   7.241   4.365   7.412
 2614TIP3   OH231294   7.295   4.423   7.598
 2614TIP3    H131295   7.203   4.453   7.609
 2614TIP3    H231296   7.336   4.507   7.568
 2615TIP3   OH231297   5.723   4.276   7.918
 2615TIP3    H131298   5.804   4.253   7.969
 2615TIP3    H231299   5.666   4.197   7.936
 2616TIP3   OH231300   7.462   3.787   8.110
 2616TIP3    H131301   7.528   3.742   8.052
 2616TIP3    H231302   7.452   3.867   8.054
 2617TIP3   OH231303   7.243   4.002   6.734
 2617TIP3    H131304   7.284   3.971   6.818
 2617TIP3    H231305   7.195   3.920   6.709
 2618TIP3   OH231306   5.827   4.100   7.281
 2618TIP3    H131307   5.870   4.013   7.268
 2618TIP3    H231308   5.902   4.162   7.273
 2619TIP3   OH231309   5.673   4.410   7.338
 2619TIP3    H131310   5.734   4.377   7.270
 2619TIP3    H231311   5.712   4.496   7.356
 2620TIP3   OH231312   7.432   4.004   7.955
 2620TIP3    H131313   7.349   4.056   7.968
 2620TIP3    H231314   7.414   3.961   7.868
 2621TIP3   OH231315   5.673   4.071   6.743
 2621TIP3    H131316   5.577   4.066   6.758
 2621TIP3    H231317   5.686   4.003   6.677
 2622TIP3   OH231318   7.159   5.545   6.957
 2622TIP3    H131319   7.209   5.561   6.874
 2622TIP3    H231320   7.203   5.608   7.018
 2623TIP3   OH231321   5.703   3.885   7.566
 2623TIP3    H131322   5.629   3.849   7.619
 2623TIP3    H231323   5.665   3.962   7.522
 2624TIP3   OH231324   5.910   5.209   7.958
 2624TIP3    H131325   5.824   5.248   7.937
 2624TIP3    H231326   5.894   5.162   8.040
 2625TIP3   OH231327   6.189   5.352   7.619
 2625TIP3    H131328   6.181   5.445   7.590
 2625TIP3    H231329   6.286   5.341   7.609
 2626TIP3   OH231330   6.601   5.459   7.862
 2626TIP3    H131331   6.594   5.449   7.959
 2626TIP3    H231332   6.688   5.502   7.853
 2627TIP3   OH231333   6.816   5.641   7.838
 2627TIP3    H131334   6.897   5.606   7.798
 2627TIP3    H231335   6.848   5.680   7.921
 2628TIP3   OH231336   7.340   3.844   7.752
 2628TIP3    H131337   7.257   3.868   7.706
 2628TIP3    H231338   7.356   3.752   7.722
 2629TIP3   OH231339   5.928   5.665   7.591
 2629TIP3    H131340   5.847   5.708   7.556
 2629TIP3    H231341   5.922   5.693   7.684
 2630TIP3   OH231342   6.166   5.601   7.483
 2630TIP3    H131343   6.073   5.625   7.505
 2630TIP3    H231344   6.192   5.671   7.421
 2631TIP3   OH231345   6.653   5.576   7.418
 2631TIP3    H131346   6.580   5.612   7.362
 2631TIP3    H231347   6.668   5.651   7.479
 2632TIP3   OH231348   6.847   5.451   7.563
 2632TIP3    H131349   6.777   5.491   7.507
 2632TIP3    H231350   6.920   5.512   7.540
 2633TIP3   OH231351   7.100   5.578   7.533
 2633TIP3    H131352   7.123   5.665   7.497
 2633TIP3    H231353   7.146   5.518   7.469
 2634TIP3   OH231354   5.894   5.495   7.297
 2634TIP3    H131355   5.873   5.428   7.367
 2634TIP3    H231356   5.985   5.471   7.271
 2635TIP3   OH231357   6.130   5.427   7.159
 2635TIP3    H131358   6.102   5.334   7.172
 2635TIP3    H231359   6.220   5.422   7.198
 2636TIP3   OH231360   6.357   5.394   7.297
 2636TIP3    H131361   6.387   5.301   7.293
 2636TIP3    H231362   6.354   5.409   7.393
 2637TIP3   OH231363   6.672   3.969   7.171
 2637TIP3    H131364   6.587   3.928   7.195
 2637TIP3    H231365   6.704   3.915   7.098
 2638TIP3   OH231366   7.202   3.784   7.159
 2638TIP3    H131367   7.254   3.849   7.107
 2638TIP3    H231368   7.114   3.826   7.155
 2639TIP3   OH231369   7.341   3.916   6.968
 2639TIP3    H131370   7.396   3.838   6.943
 2639TIP3    H231371   7.409   3.986   6.984
 2640TIP3   OH231372   5.926   3.857   6.968
 2640TIP3    H131373   5.832   3.847   6.945
 2640TIP3    H231374   5.960   3.767   6.948
 2641TIP3   OH231375   6.374   3.801   6.924
 2641TIP3    H131376   6.448   3.848   6.884
 2641TIP3    H231377   6.384   3.828   7.017
 2642TIP3   OH231378   6.944   3.859   7.111
 2642TIP3    H131379   6.937   3.883   7.018
 2642TIP3    H231380   6.888   3.778   7.114
 2643TIP3   OH231381   7.080   3.804   6.645
 2643TIP3    H131382   7.025   3.883   6.639
 2643TIP3    H231383   7.027   3.736   6.690
 2644TIP3   OH231384   6.517   4.055   6.600
 2644TIP3    H131385   6.537   4.004   6.681
 2644TIP3    H231386   6.527   4.145   6.639
 2645TIP3   OH231387   7.321   5.546   6.737
 2645TIP3    H131388   7.304   5.471   6.678
 2645TIP3    H231389   7.318   5.622   6.674
 2646TIP3   OH231390   5.886   3.917   7.871
 2646TIP3    H131391   5.841   3.832   7.889
 2646TIP3    H231392   5.966   3.907   7.927
 2647TIP3   OH231393   6.098   3.855   8.061
 2647TIP3    H131394   6.180   3.807   8.039
 2647TIP3    H231395   6.051   3.786   8.111
 2648TIP3   OH231396   6.958   3.763   8.102
 2648TIP3    H131397   6.967   3.726   8.193
 2648TIP3    H231398   7.049   3.747   8.067
 2649TIP3   OH231399   7.260   5.381   7.938
 2649TIP3    H131400   7.180   5.378   7.881
 2649TIP3    H231401   7.255   5.475   7.963
 2650TIP3   OH231402   7.583   4.453   6.852
 2650TIP3    H131403   7.509   4.510   6.879
 2650TIP3    H231404   7.543   4.411   6.773
 2651TIP3   OH231405   7.643   4.727   7.053
 2651TIP3    H131406   7.700   4.648   7.049
 2651TIP3    H231407   7.709   4.795   7.028
 2652TIP3   OH231408   7.621   5.248   6.732
 2652TIP3    H131409   7.545   5.258   6.673
 2652TIP3    H231410   7.620   5.152   6.748
 2653TIP3   OH231411   7.554   4.903   7.606
 2653TIP3    H131412   7.503   4.936   7.529
 2653TIP3    H231413   7.600   4.828   7.567
 2654TIP3   OH231414   7.532   5.221   7.298
 2654TIP3    H131415   7.618   5.218   7.251
 2654TIP3    H231416   7.539   5.309   7.339
 2655TIP3   OH231417   7.500   4.135   6.968
 2655TIP3    H131418   7.590   4.155   7.005
 2655TIP3    H231419   7.522   4.140   6.874
 2656TIP3   OH231420   7.579   4.207   6.495
 2656TIP3    H131421   7.602   4.264   6.419
 2656TIP3    H231422   7.555   4.275   6.560
 2657TIP3   OH231423   7.589   4.617   7.720
 2657TIP3    H131424   7.568   4.587   7.812
 2657TIP3    H231425   7.503   4.655   7.696
 2658TIP3   OH231426   7.626   5.539   7.962
 2658TIP3    H131427   7.723   5.536   7.948
 2658TIP3    H231428   7.596   5.455   7.920
 2659TIP3   OH231429   7.604   4.880   8.046
 2659TIP3    H131430   7.535   4.833   8.094
 2659TIP3    H231431   7.554   4.924   7.973
 2660TIP3   OH231432   7.672   5.169   6.426
 2660TIP3    H131433   7.728   5.238   6.387
 2660TIP3    H231434   7.673   5.100   6.359
 2661TIP3   OH231435   7.477   5.607   6.935
 2661TIP3    H131436   7.415   5.565   6.870
 2661TIP3    H231437   7.516   5.529   6.979
 2662TIP3   OH231438   7.573   5.415   7.087
 2662TIP3    H131439   7.509   5.344   7.098
 2662TIP3    H231440   7.586   5.444   7.179
 2663TIP3   OH231441   7.606   4.695   7.326
 2663TIP3    H131442   7.584   4.720   7.234
 2663TIP3    H231443   7.699   4.729   7.328
 2664TIP3   OH231444   7.531   4.258   7.938
 2664TIP3    H131445   7.628   4.258   7.935
 2664TIP3    H231446   7.516   4.165   7.964
 2665TIP3   OH231447   7.511   4.400   7.280
 2665TIP3    H131448   7.556   4.345   7.215
 2665TIP3    H231449   7.571   4.477   7.279
 2666TIP3   OH231450   7.511   4.032   6.692
 2666TIP3    H131451   7.414   4.031   6.700
 2666TIP3    H231452   7.526   4.090   6.614
 2667TIP3   OH231453   7.489   3.866   7.508
 2667TIP3    H131454   7.458   3.869   7.601
 2667TIP3    H231455   7.447   3.945   7.468
 2668TIP3   OH231456   7.604   5.481   6.558
 2668TIP3    H131457   7.564   5.452   6.641
 2668TIP3    H231458   7.553   5.560   6.532
 2669TIP3   OH231459   1.193   6.652   6.923
 2669TIP3    H131460   1.189   6.748   6.935
 2669TIP3    H231461   1.136   6.644   6.844
 2670TIP3   OH231462   1.091   6.554   7.286
 2670TIP3    H131463   1.106   6.501   7.367
 2670TIP3    H231464   1.029   6.500   7.233
 2671TIP3   OH231465   0.296   6.549   7.433
 2671TIP3    H131466   0.266   6.476   7.491
 2671TIP3    H231467   0.366   6.589   7.488
 2672TIP3   OH231468   1.392   6.872   7.118
 2672TIP3    H131469   1.390   6.794   7.177
 2672TIP3    H231470   1.386   6.945   7.182
 2673TIP3   OH231471   0.378   6.991   7.224
 2673TIP3    H131472   0.369   6.894   7.214
 2673TIP3    H231473   0.467   6.990   7.264
 2674TIP3   OH231474   0.123   6.396   6.811
 2674TIP3    H131475   0.071   6.475   6.832
 2674TIP3    H231476   0.051   6.334   6.787
 2675TIP3   OH231477   0.217   6.575   7.064
 2675TIP3    H131478   0.220   6.481   7.095
 2675TIP3    H231479   0.258   6.564   6.977
 2676TIP3   OH231480   1.153   7.374   7.130
 2676TIP3    H131481   1.228   7.319   7.100
 2676TIP3    H231482   1.107   7.311   7.187
 2677TIP3   OH231483   0.933   6.797   7.317
 2677TIP3    H131484   0.977   6.721   7.275
 2677TIP3    H231485   1.006   6.828   7.374
 2678TIP3   OH231486   1.758   5.959   7.373
 2678TIP3    H131487   1.759   6.013   7.454
 2678TIP3    H231488   1.845   5.979   7.334
 2679TIP3   OH231489   1.292   6.266   7.372
 2679TIP3    H131490   1.284   6.169   7.387
 2679TIP3    H231491   1.280   6.265   7.274
 2680TIP3   OH231492   0.549   6.066   7.074
 2680TIP3    H131493   0.568   6.141   7.014
 2680TIP3    H231494   0.538   5.995   7.005
 2681TIP3   OH231495   1.284   6.087   6.947
 2681TIP3    H131496   1.343   6.041   7.011
 2681TIP3    H231497   1.349   6.143   6.901
 2682TIP3   OH231498   0.224   6.315   7.128
 2682TIP3    H131499   0.284   6.259   7.181
 2682TIP3    H231500   0.233   6.273   7.040
 2683TIP3   OH231501   0.657   6.475   7.077
 2683TIP3    H131502   0.741   6.438   7.109
 2683TIP3    H231503   0.627   6.399   7.021
 2684TIP3   OH231504   1.792   6.113   7.607
 2684TIP3    H131505   1.753   6.194   7.568
 2684TIP3    H231506   1.807   6.144   7.697
 2685TIP3   OH231507   0.454   5.975   7.487
 2685TIP3    H131508   0.422   6.022   7.407
 2685TIP3    H231509   0.386   6.003   7.552
 2686TIP3   OH231510   1.139   6.913   6.829
 2686TIP3    H131511   1.125   6.917   6.732
 2686TIP3    H231512   1.118   7.006   6.849
 2687TIP3   OH231513   0.683   6.731   7.481
 2687TIP3    H131514   0.625   6.807   7.505
 2687TIP3    H231515   0.764   6.778   7.455
 2688TIP3   OH231516   1.482   6.030   7.140
 2688TIP3    H131517   1.489   5.938   7.169
 2688TIP3    H231518   1.542   6.071   7.204
 2689TIP3   OH231519   0.391   6.162   7.281
 2689TIP3    H131520   0.444   6.234   7.323
 2689TIP3    H231521   0.453   6.130   7.209
 2690TIP3   OH231522   0.546   6.950   7.551
 2690TIP3    H131523   0.542   7.045   7.528
 2690TIP3    H231524   0.456   6.940   7.586
 2691TIP3   OH231525   0.178   6.945   6.666
 2691TIP3    H131526   0.166   6.987   6.579
 2691TIP3    H231527   0.086   6.938   6.700
 2692TIP3   OH231528   1.479   7.117   7.381
 2692TIP3    H131529   1.383   7.111   7.372
 2692TIP3    H231530   1.497   7.194   7.324
 2693TIP3   OH231531   1.484   5.892   7.472
 2693TIP3    H131532   1.405   5.927   7.424
 2693TIP3    H231533   1.559   5.911   7.412
 2694TIP3   OH231534   0.782   5.702   7.213
 2694TIP3    H131535   0.752   5.611   7.220
 2694TIP3    H231536   0.700   5.751   7.240
 2695TIP3   OH231537   1.344   7.225   7.016
 2695TIP3    H131538   1.359   7.146   6.960
 2695TIP3    H231539   1.406   7.287   6.973
 2696TIP3   OH231540   1.458   7.019   6.853
 2696TIP3    H131541   1.463   6.952   6.781
 2696TIP3    H231542   1.433   6.959   6.926
 2697TIP3   OH231543   1.597   6.898   7.710
 2697TIP3    H131544   1.608   6.826   7.644
 2697TIP3    H231545   1.615   6.976   7.652
 2698TIP3   OH231546   1.058   6.608   6.689
 2698TIP3    H131547   0.994   6.664   6.642
 2698TIP3    H231548   1.128   6.594   6.622
 2699TIP3   OH231549   1.808   6.537   7.512
 2699TIP3    H131550   1.734   6.602   7.511
 2699TIP3    H231551   1.856   6.569   7.432
 2700TIP3   OH231552   1.412   6.564   6.779
 2700TIP3    H131553   1.352   6.607   6.844
 2700TIP3    H231554   1.480   6.528   6.839
 2701TIP3   OH231555   1.436   6.447   7.695
 2701TIP3    H131556   1.425   6.541   7.716
 2701TIP3    H231557   1.364   6.435   7.631
 2702TIP3   OH231558   0.512   6.650   6.943
 2702TIP3    H131559   0.506   6.597   6.859
 2702TIP3    H231560   0.565   6.588   6.998
 2703TIP3   OH231561   0.712   6.988   7.239
 2703TIP3    H131562   0.726   6.945   7.154
 2703TIP3    H231563   0.784   6.945   7.290
 2704TIP3   OH231564   0.595   6.531   7.331
 2704TIP3    H131565   0.620   6.530   7.235
 2704TIP3    H231566   0.641   6.609   7.369
 2705TIP3   OH231567   1.205   7.111   7.396
 2705TIP3    H131568   1.185   7.185   7.456
 2705TIP3    H231569   1.188   7.032   7.451
 2706TIP3   OH231570   0.666   6.954   7.793
 2706TIP3    H131571   0.604   7.018   7.834
 2706TIP3    H231572   0.621   6.934   7.708
 2707TIP3   OH231573   1.284   6.545   6.546
 2707TIP3    H131574   1.327   6.562   6.634
 2707TIP3    H231575   1.354   6.575   6.485
 2708TIP3   OH231576   0.406   6.622   7.695
 2708TIP3    H131577   0.389   6.693   7.761
 2708TIP3    H231578   0.319   6.577   7.691
 2709TIP3   OH231579   1.038   7.197   6.839
 2709TIP3    H131580   1.068   7.204   6.931
 2709TIP3    H231581   0.983   7.277   6.834
 2710TIP3   OH231582   0.521   7.177   7.893
 2710TIP3    H131583   0.515   7.180   7.796
 2710TIP3    H231584   0.427   7.164   7.915
 2711TIP3   OH231585   1.685   5.674   6.564
 2711TIP3    H131586   1.603   5.671   6.510
 2711TIP3    H231587   1.693   5.768   6.585
 2712TIP3   OH231588   0.429   6.529   6.730
 2712TIP3    H131589   0.383   6.602   6.682
 2712TIP3    H231590   0.403   6.452   6.679
 2713TIP3   OH231591   0.115   6.806   7.670
 2713TIP3    H131592   0.018   6.803   7.657
 2713TIP3    H231593   0.142   6.719   7.635
 2714TIP3   OH231594   0.122   7.095   7.244
 2714TIP3    H131595   0.191   7.025   7.247
 2714TIP3    H231596   0.155   7.146   7.322
 2715TIP3   OH231597   1.844   7.161   7.869
 2715TIP3    H131598   1.807   7.072   7.854
 2715TIP3    H231599   1.768   7.201   7.919
 2716TIP3   OH231600   0.924   7.088   7.791
 2716TIP3    H131601   0.934   7.177   7.832
 2716TIP3    H231602   0.828   7.073   7.781
 2717TIP3   OH231603   1.011   7.472   6.748
 2717TIP3    H131604   0.975   7.503   6.664
 2717TIP3    H231605   0.996   7.548   6.806
 2718TIP3   OH231606   0.372   7.309   6.919
 2718TIP3    H131607   0.394   7.281   7.011
 2718TIP3    H231608   0.276   7.292   6.915
 2719TIP3   OH231609   1.254   7.372   6.692
 2719TIP3    H131610   1.167   7.391   6.734
 2719TIP3    H231611   1.292   7.306   6.752
 2720TIP3   OH231612   1.567   6.275   7.916
 2720TIP3    H131613   1.508   6.316   7.848
 2720TIP3    H231614   1.567   6.184   7.882
 2721TIP3   OH231615   0.303   6.985   7.687
 2721TIP3    H131616   0.329   6.929   7.764
 2721TIP3    H231617   0.222   6.934   7.664
 2722TIP3   OH231618   0.567   5.820   7.305
 2722TIP3    H131619   0.477   5.814   7.265
 2722TIP3    H231620   0.545   5.869   7.387
 2723TIP3   OH231621   1.047   5.754   7.623
 2723TIP3    H131622   1.079   5.707   7.703
 2723TIP3    H231623   0.949   5.759   7.639
 2724TIP3   OH231624   1.320   6.173   7.755
 2724TIP3    H131625   1.261   6.146   7.830
 2724TIP3    H231626   1.270   6.245   7.715
 2725TIP3   OH231627   0.580   6.288   7.445
 2725TIP3    H131628   0.493   6.298   7.488
 2725TIP3    H231629   0.596   6.382   7.415
 2726TIP3   OH231630   0.582   6.276   6.915
 2726TIP3    H131631   0.487   6.274   6.888
 2726TIP3    H231632   0.622   6.256   6.828
 2727TIP3   OH231633   1.115   6.350   6.786
 2727TIP3    H131634   1.098   6.443   6.759
 2727TIP3    H231635   1.197   6.326   6.739
 2728TIP3   OH231636   1.020   6.393   7.932
 2728TIP3    H131637   0.970   6.318   7.968
 2728TIP3    H231638   1.103   6.382   7.982
 2729TIP3   OH231639   1.243   6.323   7.102
 2729TIP3    H131640   1.222   6.407   7.056
 2729TIP3    H231641   1.228   6.257   7.031
 2730TIP3   OH231642   0.324   6.287   7.570
 2730TIP3    H131643   0.373   6.315   7.648
 2730TIP3    H231644   0.281   6.203   7.598
 2731TIP3   OH231645   0.085   6.087   6.979
 2731TIP3    H131646   0.114   6.025   7.049
 2731TIP3    H231647   0.078   6.032   6.898
 2732TIP3   OH231648   1.149   6.443   7.520
 2732TIP3    H131649   1.207   6.376   7.479
 2732TIP3    H231650   1.089   6.388   7.576
 2733TIP3   OH231651   0.841   6.069   7.036
 2733TIP3    H131652   0.750   6.069   7.071
 2733TIP3    H231653   0.888   6.009   7.096
 2734TIP3   OH231654   0.324   6.230   6.888
 2734TIP3    H131655   0.251   6.270   6.837
 2734TIP3    H231656   0.309   6.135   6.875
 2735TIP3   OH231657   0.662   6.224   6.668
 2735TIP3    H131658   0.758   6.220   6.652
 2735TIP3    H231659   0.630   6.281   6.595
 2736TIP3   OH231660   1.264   5.985   7.356
 2736TIP3    H131661   1.194   5.975   7.424
 2736TIP3    H231662   1.235   5.926   7.284
 2737TIP3   OH231663   0.588   6.343   6.437
 2737TIP3    H131664   0.507   6.304   6.403
 2737TIP3    H231665   0.627   6.389   6.362
 2738TIP3   OH231666   1.528   7.535   7.976
 2738TIP3    H131667   1.558   7.564   7.889
 2738TIP3    H231668   1.608   7.553   8.030
 2739TIP3   OH231669   0.380   6.819   7.884
 2739TIP3    H131670   0.451   6.816   7.950
 2739TIP3    H231671   0.301   6.812   7.943
 2740TIP3   OH231672   0.914   6.336   7.198
 2740TIP3    H131673   1.000   6.297   7.175
 2740TIP3    H231674   0.869   6.259   7.236
 2741TIP3   OH231675   0.505   5.922   6.854
 2741TIP3    H131676   0.442   5.849   6.872
 2741TIP3    H231677   0.547   5.890   6.774
 2742TIP3   OH231678   0.811   6.146   7.439
 2742TIP3    H131679   0.731   6.202   7.441
 2742TIP3    H231680   0.872   6.194   7.497
 2743TIP3   OH231681   0.857   6.830   6.643
 2743TIP3    H131682   0.807   6.763   6.590
 2743TIP3    H231683   0.812   6.821   6.728
 2744TIP3   OH231684   1.623   6.732   7.511
 2744TIP3    H131685   1.660   6.787   7.437
 2744TIP3    H231686   1.537   6.709   7.472
 2745TIP3   OH231687   1.190   6.102   6.459
 2745TIP3    H131688   1.174   6.152   6.379
 2745TIP3    H231689   1.247   6.164   6.509
 2746TIP3   OH231690   0.993   6.831   7.743
 2746TIP3    H131691   0.987   6.778   7.823
 2746TIP3    H231692   0.977   6.922   7.777
 2747TIP3   OH231693   1.333   6.285   6.617
 2747TIP3    H131694   1.400   6.283   6.687
 2747TIP3    H231695   1.337   6.376   6.582
 2748TIP3   OH231696   0.441   6.736   7.189
 2748TIP3    H131697   0.414   6.685   7.111
 2748TIP3    H231698   0.443   6.664   7.255
 2749TIP3   OH231699   1.086   6.938   6.555
 2749TIP3    H131700   1.038   7.018   6.524
 2749TIP3    H231701   1.010   6.882   6.582
 2750TIP3   OH231702   0.143   6.527   7.681
 2750TIP3    H131703   0.143   6.505   7.775
 2750TIP3    H231704   0.046   6.523   7.667
 2751TIP3   OH231705   0.765   6.520   7.907
 2751TIP3    H131706   0.731   6.469   7.832
 2751TIP3    H231707   0.858   6.490   7.909
 2752TIP3   OH231708   1.266   7.039   7.764
 2752TIP3    H131709   1.178   7.057   7.731
 2752TIP3    H231710   1.268   7.095   7.844
 2753TIP3   OH231711   1.748   6.275   6.616
 2753TIP3    H131712   1.723   6.241   6.529
 2753TIP3    H231713   1.740   6.371   6.604
 2754TIP3   OH231714   1.840   6.870   7.828
 2754TIP3    H131715   1.751   6.882   7.787
 2754TIP3    H231716   1.894   6.861   7.747
 2755TIP3   OH231717   1.645   7.146   6.614
 2755TIP3    H131718   1.593   7.088   6.672
 2755TIP3    H231719   1.628   7.107   6.527
 2756TIP3   OH231720   1.394   6.650   7.322
 2756TIP3    H131721   1.302   6.621   7.308
 2756TIP3    H231722   1.443   6.592   7.261
 2757TIP3   OH231723   0.635   7.076   6.956
 2757TIP3    H131724   0.677   7.148   7.005
 2757TIP3    H231725   0.579   7.129   6.896
 2758TIP3   OH231726   0.228   6.566   6.400
 2758TIP3    H131727   0.283   6.619   6.461
 2758TIP3    H231728   0.138   6.576   6.433
 2759TIP3   OH231729   0.766   6.841   6.900
 2759TIP3    H131730   0.808   6.928   6.883
 2759TIP3    H231731   0.838   6.785   6.936
 2760TIP3   OH231732   0.810   7.275   7.561
 2760TIP3    H131733   0.850   7.363   7.558
 2760TIP3    H231734   0.881   7.225   7.604
 2761TIP3   OH231735   0.635   7.349   6.835
 2761TIP3    H131736   0.542   7.350   6.867
 2761TIP3    H231737   0.670   7.435   6.867
 2762TIP3   OH231738   1.135   6.851   7.496
 2762TIP3    H131739   1.098   6.829   7.584
 2762TIP3    H231740   1.189   6.773   7.475
 2763TIP3   OH231741   1.412   6.939   6.449
 2763TIP3    H131742   1.409   6.906   6.541
 2763TIP3    H231743   1.318   6.950   6.429
 2764TIP3   OH231744   1.431   7.309   7.750
 2764TIP3    H131745   1.361   7.254   7.709
 2764TIP3    H231746   1.450   7.377   7.681
 2765TIP3   OH231747   1.859   7.399   6.441
 2765TIP3    H131748   1.821   7.375   6.355
 2765TIP3    H231749   1.786   7.449   6.483
 2766TIP3   OH231750   0.228   6.056   7.673
 2766TIP3    H131751   0.185   6.101   7.749
 2766TIP3    H231752   0.234   5.965   7.707
 2767TIP3   OH231753   1.482   6.813   6.679
 2767TIP3    H131754   1.468   6.719   6.698
 2767TIP3    H231755   1.576   6.810   6.651
 2768TIP3   OH231756   0.216   7.206   7.487
 2768TIP3    H131757   0.286   7.153   7.529
 2768TIP3    H231758   0.182   7.259   7.561
 2769TIP3   OH231759   0.677   7.025   6.500
 2769TIP3    H131760   0.727   6.967   6.558
 2769TIP3    H231761   0.672   7.111   6.549
 2770TIP3   OH231762   0.335   6.734   6.585
 2770TIP3    H131763   0.271   6.803   6.612
 2770TIP3    H231764   0.387   6.789   6.523
 2771TIP3   OH231765   1.121   6.014   7.610
 2771TIP3    H131766   1.188   6.026   7.679
 2771TIP3    H231767   1.094   5.920   7.623
 2772TIP3   OH231768   1.173   5.916   6.643
 2772TIP3    H131769   1.175   5.987   6.575
 2772TIP3    H231770   1.234   5.950   6.711
 2773TIP3   OH231771   0.986   7.207   6.534
 2773TIP3    H131772   0.892   7.220   6.556
 2773TIP3    H231773   1.030   7.229   6.618
 2774TIP3   OH231774   0.928   6.125   6.753
 2774TIP3    H131775   0.980   6.207   6.769
 2774TIP3    H231776   0.879   6.118   6.837
 2775TIP3   OH231777   1.023   6.276   7.673
 2775TIP3    H131778   1.023   6.301   7.767
 2775TIP3    H231779   1.041   6.179   7.671
 2776TIP3   OH231780   1.002   5.836   6.840
 2776TIP3    H131781   0.982   5.921   6.884
 2776TIP3    H231782   1.073   5.865   6.777
 2777TIP3   OH231783   0.674   7.273   6.586
 2777TIP3    H131784   0.584   7.293   6.557
 2777TIP3    H231785   0.673   7.311   6.677
 2778TIP3   OH231786   0.587   5.914   6.520
 2778TIP3    H131787   0.533   5.994   6.531
 2778TIP3    H231788   0.675   5.938   6.558
 2779TIP3   OH231789   1.573   6.051   7.774
 2779TIP3    H131790   1.476   6.065   7.766
 2779TIP3    H231791   1.605   6.065   7.684
 2780TIP3   OH231792   1.493   6.430   7.166
 2780TIP3    H131793   1.417   6.368   7.159
 2780TIP3    H231794   1.557   6.375   7.217
 2781TIP3   OH231795   0.438   6.941   6.425
 2781TIP3    H131796   0.526   6.981   6.443
 2781TIP3    H231797   0.461   6.881   6.350
 2782TIP3   OH231798   1.576   7.391   7.362
 2782TIP3    H131799   1.563   7.441   7.277
 2782TIP3    H231800   1.674   7.391   7.363
 2783TIP3   OH231801   0.325   5.775   7.225
 2783TIP3    H131802   0.317   5.751   7.130
 2783TIP3    H231803   0.292   5.691   7.268
 2784TIP3   OH231804   0.158   7.133   6.873
 2784TIP3    H131805   0.130   7.189   6.797
 2784TIP3    H231806   0.235   7.093   6.828
 2785TIP3   OH231807   0.172   7.371   7.975
 2785TIP3    H131808   0.198   7.404   8.065
 2785TIP3    H231809   0.219   7.285   7.974
 2786TIP3   OH231810   0.585   7.256   8.153
 2786TIP3    H131811   0.670   7.215   8.177
 2786TIP3    H231812   0.574   7.229   8.060
 2787TIP3   OH231813   1.222   7.171   8.004
 2787TIP3    H131814   1.212   7.083   8.049
 2787TIP3    H231815   1.309   7.196   8.043
 2788TIP3   OH231816   0.175   6.778   8.057
 2788TIP3    H131817   0.182   6.681   8.049
 2788TIP3    H231818   0.078   6.785   8.046
 2789TIP3   OH231819   0.769   6.778   7.973
 2789TIP3    H131820   0.745   6.836   7.897
 2789TIP3    H231821   0.750   6.688   7.938
 2790TIP3   OH231822   1.349   6.774   7.749
 2790TIP3    H131823   1.429   6.829   7.750
 2790TIP3    H231824   1.285   6.847   7.759
 2791TIP3   OH231825   0.199   6.508   8.024
 2791TIP3    H131826   0.259   6.431   8.030
 2791TIP3    H231827   0.186   6.525   8.120
 2792TIP3   OH231828   0.691   6.679   6.507
 2792TIP3    H131829   0.628   6.608   6.523
 2792TIP3    H231830   0.650   6.716   6.425
 2793TIP3   OH231831   0.567   6.411   7.696
 2793TIP3    H131832   0.523   6.498   7.705
 2793TIP3    H231833   0.643   6.439   7.639
 2794TIP3   OH231834   1.122   6.678   8.072
 2794TIP3    H131835   1.179   6.626   8.013
 2794TIP3    H231836   1.078   6.611   8.128
 2795TIP3   OH231837   0.671   6.186   7.813
 2795TIP3    H131838   0.678   6.120   7.741
 2795TIP3    H231839   0.629   6.262   7.767
 2796TIP3   OH231840   0.700   5.986   7.614
 2796TIP3    H131841   0.743   6.025   7.535
 2796TIP3    H231842   0.608   5.979   7.579
 2797TIP3   OH231843   0.814   6.529   7.611
 2797TIP3    H131844   0.907   6.533   7.586
 2797TIP3    H231845   0.776   6.606   7.563
 2798TIP3   OH231846   1.217   6.329   8.117
 2798TIP3    H131847   1.243   6.236   8.136
 2798TIP3    H231848   1.302   6.372   8.109
 2799TIP3   OH231849   1.419   6.620   7.970
 2799TIP3    H131850   1.381   6.666   7.893
 2799TIP3    H231851   1.512   6.606   7.940
 2800TIP3   OH231852   0.489   6.257   8.061
 2800TIP3    H131853   0.420   6.193   8.034
 2800TIP3    H231854   0.523   6.285   7.975
 2801TIP3   OH231855   0.777   5.730   7.621
 2801TIP3    H131856   0.744   5.823   7.629
 2801TIP3    H231857   0.704   5.686   7.576
 2802TIP3   OH231858   0.880   6.173   8.018
 2802TIP3    H131859   0.826   6.150   8.096
 2802TIP3    H231860   0.817   6.150   7.947
 2803TIP3   OH231861   1.143   6.090   7.926
 2803TIP3    H131862   1.049   6.078   7.947
 2803TIP3    H231863   1.184   6.027   7.989
 2804TIP3   OH231864   1.255   5.917   8.089
 2804TIP3    H131865   1.285   5.826   8.109
 2804TIP3    H231866   1.275   5.968   8.171
 2805TIP3   OH231867   0.299   6.071   8.039
 2805TIP3    H131868   0.334   5.997   7.988
 2805TIP3    H231869   0.278   6.026   8.125
 2806TIP3   OH231870   0.755   5.658   7.897
 2806TIP3    H131871   0.830   5.596   7.906
 2806TIP3    H231872   0.760   5.674   7.800
 2807TIP3   OH231873   0.764   5.782   8.174
 2807TIP3    H131874   0.756   5.737   8.087
 2807TIP3    H231875   0.756   5.875   8.146
 2808TIP3   OH231876   0.190   6.987   6.325
 2808TIP3    H131877   0.280   6.980   6.365
 2808TIP3    H231878   0.216   7.026   6.239
 2809TIP3   OH231879   0.070   7.583   6.907
 2809TIP3    H131880  -0.009   7.612   6.858
 2809TIP3    H231881   0.037   7.503   6.950
 2810TIP3   OH231882   0.073   7.325   7.085
 2810TIP3    H131883   0.067   7.251   7.148
 2810TIP3    H231884   0.139   7.378   7.135
 2811TIP3   OH231885   1.841   7.424   7.331
 2811TIP3    H131886   1.861   7.478   7.411
 2811TIP3    H231887   1.866   7.484   7.259
 2812TIP3   OH231888   1.787   7.340   7.664
 2812TIP3    H131889   1.755   7.267   7.607
 2812TIP3    H231890   1.829   7.286   7.734
 2813TIP3   OH231891   1.663   6.929   8.134
 2813TIP3    H131892   1.576   6.936   8.179
 2813TIP3    H231893   1.700   7.019   8.147
 2814TIP3   OH231894   1.757   6.781   6.653
 2814TIP3    H131895   1.848   6.812   6.663
 2814TIP3    H231896   1.755   6.712   6.724
 2815TIP3   OH231897   1.797   6.588   6.846
 2815TIP3    H131898   1.724   6.529   6.875
 2815TIP3    H231899   1.841   6.602   6.933
 2816TIP3   OH231900   1.776   6.841   7.327
 2816TIP3    H131901   1.842   6.770   7.309
 2816TIP3    H231902   1.820   6.920   7.288
 2817TIP3   OH231903   1.650   7.126   7.579
 2817TIP3    H131904   1.576   7.167   7.627
 2817TIP3    H231905   1.612   7.120   7.489
 2818TIP3   OH231906   1.604   6.429   6.922
 2818TIP3    H131907   1.583   6.335   6.903
 2818TIP3    H231908   1.575   6.435   7.017
 2819TIP3   OH231909   0.152   6.723   7.288
 2819TIP3    H131910   0.187   6.667   7.215
 2819TIP3    H231911   0.204   6.684   7.362
 2820TIP3   OH231912   1.691   6.627   7.897
 2820TIP3    H131913   1.748   6.547   7.887
 2820TIP3    H231914   1.752   6.701   7.879
 2821TIP3   OH231915   1.809   6.380   7.940
 2821TIP3    H131916   1.719   6.342   7.928
 2821TIP3    H231917   1.868   6.303   7.928
 2822TIP3   OH231918   1.547   6.191   6.819
 2822TIP3    H131919   1.573   6.096   6.819
 2822TIP3    H231920   1.615   6.221   6.756
 2823TIP3   OH231921   1.657   6.254   7.294
 2823TIP3    H131922   1.752   6.270   7.316
 2823TIP3    H231923   1.617   6.268   7.381
 2824TIP3   OH231924   1.635   6.320   7.555
 2824TIP3    H131925   1.553   6.349   7.600
 2824TIP3    H231926   1.688   6.402   7.552
 2825TIP3   OH231927   0.078   6.114   7.902
 2825TIP3    H131928   0.162   6.126   7.952
 2825TIP3    H231929   0.074   6.017   7.895
 2826TIP3   OH231930   1.841   5.760   8.085
 2826TIP3    H131931   1.887   5.692   8.030
 2826TIP3    H231932   1.840   5.836   8.022
 2827TIP3   OH231933   1.644   5.951   6.775
 2827TIP3    H131934   1.661   5.904   6.860
 2827TIP3    H231935   1.573   5.895   6.737
 2828TIP3   OH231936   0.127   5.989   7.247
 2828TIP3    H131937   0.189   5.914   7.249
 2828TIP3    H231938   0.182   6.065   7.269
 2829TIP3   OH231939   0.043   6.316   7.330
 2829TIP3    H131940   0.100   6.299   7.252
 2829TIP3    H231941   0.083   6.396   7.366
 2830TIP3   OH231942   1.791   5.969   7.938
 2830TIP3    H131943   1.716   5.994   7.995
 2830TIP3    H231944   1.746   5.934   7.859
 2831TIP3   OH231945   0.070   5.938   6.736
 2831TIP3    H131946  -0.028   5.933   6.733
 2831TIP3    H231947   0.082   5.971   6.645
 2832TIP3   OH231948   1.463   7.420   6.885
 2832TIP3    H131949   1.556   7.392   6.871
 2832TIP3    H231950   1.475   7.484   6.958
 2833TIP3   OH231951   0.029   5.765   7.565
 2833TIP3    H131952  -0.067   5.742   7.564
 2833TIP3    H231953   0.025   5.852   7.524
 2834TIP3   OH231954   0.250   7.103   7.974
 2834TIP3    H131955   0.198   7.068   7.901
 2834TIP3    H231956   0.237   7.037   8.043
 2835TIP3   OH231957   0.549   7.220   7.618
 2835TIP3    H131958   0.530   7.315   7.599
 2835TIP3    H231959   0.646   7.224   7.612
 2836TIP3   OH231960   0.968   7.332   7.898
 2836TIP3    H131961   0.958   7.309   7.992
 2836TIP3    H231962   1.064   7.345   7.891
 2837TIP3   OH231963   1.238   7.513   7.842
 2837TIP3    H131964   1.301   7.441   7.824
 2837TIP3    H231965   1.249   7.522   7.939
 2838TIP3   OH231966   1.709   5.714   7.754
 2838TIP3    H131967   1.640   5.761   7.705
 2838TIP3    H231968   1.711   5.627   7.708
 2839TIP3   OH231969   0.283   7.557   7.583
 2839TIP3    H131970   0.197   7.577   7.540
 2839TIP3    H231971   0.260   7.572   7.677
 2840TIP3   OH231972   0.534   7.480   7.535
 2840TIP3    H131973   0.436   7.490   7.550
 2840TIP3    H231974   0.546   7.554   7.473
 2841TIP3   OH231975   0.999   7.472   7.447
 2841TIP3    H131976   0.924   7.500   7.390
 2841TIP3    H231977   1.007   7.551   7.505
 2842TIP3   OH231978   1.190   7.327   7.576
 2842TIP3    H131979   1.112   7.371   7.535
 2842TIP3    H231980   1.258   7.395   7.559
 2843TIP3   OH231981   1.448   7.522   7.552
 2843TIP3    H131982   1.436   7.610   7.514
 2843TIP3    H231983   1.480   7.473   7.472
 2844TIP3   OH231984   0.248   7.374   7.279
 2844TIP3    H131985   0.221   7.341   7.367
 2844TIP3    H231986   0.338   7.337   7.268
 2845TIP3   OH231987   0.455   7.242   7.167
 2845TIP3    H131988   0.425   7.153   7.195
 2845TIP3    H231989   0.530   7.258   7.228
 2846TIP3   OH231990   0.688   7.267   7.315
 2846TIP3    H131991   0.733   7.182   7.296
 2846TIP3    H231992   0.715   7.284   7.407
 2847TIP3   OH231993   1.002   5.829   7.176
 2847TIP3    H131994   0.918   5.781   7.194
 2847TIP3    H231995   1.043   5.774   7.109
 2848TIP3   OH231996   1.582   5.675   7.161
 2848TIP3    H131997   1.644   5.732   7.111
 2848TIP3    H231998   1.496   5.707   7.124
 2849TIP3   OH231999   1.732   5.800   6.982
 2849TIP3    H132000   1.792   5.732   6.943
 2849TIP3    H232001   1.792   5.876   6.996
 2850TIP3   OH232002   0.340   5.728   6.930
 2850TIP3    H132003   0.251   5.739   6.893
 2850TIP3    H232004   0.352   5.632   6.943
 2851TIP3   OH232005   0.692   5.676   6.911
 2851TIP3    H132006   0.773   5.702   6.866
 2851TIP3    H232007   0.703   5.710   7.000
 2852TIP3   OH232008   1.323   5.730   7.069
 2852TIP3    H132009   1.280   5.739   6.983
 2852TIP3    H232010   1.288   5.643   7.098
 2853TIP3   OH232011   1.426   5.771   6.652
 2853TIP3    H132012   1.342   5.777   6.602
 2853TIP3    H232013   1.414   5.681   6.686
 2854TIP3   OH232014   0.150   7.296   6.653
 2854TIP3    H132015   0.087   7.282   6.580
 2854TIP3    H232016   0.195   7.375   6.615
 2855TIP3   OH232017   0.848   5.920   6.598
 2855TIP3    H132018   0.901   5.865   6.657
 2855TIP3    H232019   0.868   6.008   6.639
 2856TIP3   OH232020   1.694   7.369   6.753
 2856TIP3    H132021   1.668   7.287   6.705
 2856TIP3    H232022   1.679   7.438   6.685
 2857TIP3   OH232023   0.253   5.810   7.871
 2857TIP3    H132024   0.192   5.735   7.883
 2857TIP3    H232025   0.332   5.777   7.919
 2858TIP3   OH232026   0.482   5.730   8.073
 2858TIP3    H132027   0.566   5.692   8.040
 2858TIP3    H232028   0.447   5.653   8.124
 2859TIP3   OH232029   1.303   5.655   8.105
 2859TIP3    H132030   1.316   5.609   8.190
 2859TIP3    H232031   1.394   5.647   8.068
 2860TIP3   OH232032   1.618   7.271   7.948
 2860TIP3    H132033   1.535   7.279   7.895
 2860TIP3    H232034   1.633   7.364   7.974
 2861TIP3   OH232035   3.086   6.664   6.939
 2861TIP3    H132036   3.098   6.757   6.964
 2861TIP3    H232037   3.016   6.673   6.872
 2862TIP3   OH232038   2.964   6.563   7.287
 2862TIP3    H132039   2.971   6.492   7.355
 2862TIP3    H232040   2.910   6.520   7.218
 2863TIP3   OH232041   2.179   6.529   7.415
 2863TIP3    H132042   2.116   6.479   7.470
 2863TIP3    H232043   2.184   6.615   7.461
 2864TIP3   OH232044   3.313   6.845   7.109
 2864TIP3    H132045   3.289   6.777   7.174
 2864TIP3    H232046   3.326   6.923   7.167
 2865TIP3   OH232047   2.287   7.038   7.226
 2865TIP3    H132048   2.236   6.955   7.228
 2865TIP3    H232049   2.377   7.001   7.235
 2866TIP3   OH232050   1.955   6.313   6.801
 2866TIP3    H132051   1.937   6.406   6.820
 2866TIP3    H232052   1.864   6.281   6.784
 2867TIP3   OH232053   1.950   6.560   7.062
 2867TIP3    H132054   1.985   6.469   7.074
 2867TIP3    H232055   2.031   6.612   7.048
 2868TIP3   OH232056   3.005   7.360   7.084
 2868TIP3    H132057   3.097   7.327   7.069
 2868TIP3    H232058   2.985   7.320   7.170
 2869TIP3   OH232059   2.794   6.828   7.396
 2869TIP3    H132060   2.810   6.799   7.305
 2869TIP3    H232061   2.884   6.817   7.436
 2870TIP3   OH232062   3.650   5.972   7.353
 2870TIP3    H132063   3.653   6.022   7.437
 2870TIP3    H232064   3.738   5.997   7.319
 2871TIP3   OH232065   3.169   6.255   7.362
 2871TIP3    H132066   3.175   6.161   7.384
 2871TIP3    H232067   3.165   6.252   7.264
 2872TIP3   OH232068   2.429   6.046   7.049
 2872TIP3    H132069   2.432   6.125   6.991
 2872TIP3    H232070   2.386   5.983   6.986
 2873TIP3   OH232071   3.212   6.129   6.921
 2873TIP3    H132072   3.267   6.090   6.994
 2873TIP3    H232073   3.280   6.175   6.868
 2874TIP3   OH232074   2.101   6.343   7.147
 2874TIP3    H132075   2.150   6.285   7.208
 2874TIP3    H232076   2.100   6.286   7.068
 2875TIP3   OH232077   2.536   6.436   7.089
 2875TIP3    H132078   2.629   6.433   7.119
 2875TIP3    H232079   2.538   6.354   7.036
 2876TIP3   OH232080   3.666   6.104   7.598
 2876TIP3    H132081   3.636   6.189   7.560
 2876TIP3    H232082   3.682   6.131   7.691
 2877TIP3   OH232083   2.349   5.971   7.481
 2877TIP3    H132084   2.301   6.015   7.408
 2877TIP3    H232085   2.281   5.973   7.552
 2878TIP3   OH232086   3.000   6.920   6.850
 2878TIP3    H132087   3.010   6.928   6.753
 2878TIP3    H232088   2.976   7.012   6.870
 2879TIP3   OH232089   2.546   6.739   7.472
 2879TIP3    H132090   2.481   6.809   7.495
 2879TIP3    H232091   2.615   6.789   7.425
 2880TIP3   OH232092   3.365   6.036   7.130
 2880TIP3    H132093   3.356   5.949   7.170
 2880TIP3    H232094   3.442   6.072   7.177
 2881TIP3   OH232095   2.285   6.138   7.264
 2881TIP3    H132096   2.365   6.174   7.305
 2881TIP3    H232097   2.325   6.094   7.185
 2882TIP3   OH232098   2.415   6.957   7.568
 2882TIP3    H132099   2.401   7.045   7.529
 2882TIP3    H232100   2.328   6.946   7.615
 2883TIP3   OH232101   2.006   6.892   6.667
 2883TIP3    H132102   1.948   6.964   6.638
 2883TIP3    H232103   2.025   6.925   6.757
 2884TIP3   OH232104   3.363   7.082   7.326
 2884TIP3    H132105   3.268   7.104   7.326
 2884TIP3    H232106   3.397   7.152   7.269
 2885TIP3   OH232107   3.380   5.899   7.450
 2885TIP3    H132108   3.306   5.932   7.395
 2885TIP3    H232109   3.460   5.922   7.398
 2886TIP3   OH232110   2.670   5.706   7.215
 2886TIP3    H132111   2.642   5.615   7.205
 2886TIP3    H232112   2.585   5.746   7.247
 2887TIP3   OH232113   3.239   7.235   7.044
 2887TIP3    H132114   3.234   7.160   6.981
 2887TIP3    H232115   3.303   7.290   6.993
 2888TIP3   OH232116   3.314   7.021   6.862
 2888TIP3    H132117   3.315   6.966   6.781
 2888TIP3    H232118   3.312   6.951   6.929
 2889TIP3   OH232119   3.490   6.908   7.702
 2889TIP3    H132120   3.499   6.840   7.631
 2889TIP3    H232121   3.502   6.988   7.648
 2890TIP3   OH232122   2.938   6.589   6.662
 2890TIP3    H132123   2.895   6.564   6.578
 2890TIP3    H232124   3.032   6.577   6.637
 2891TIP3   OH232125   2.948   6.393   6.448
 2891TIP3    H132126   3.034   6.437   6.457
 2891TIP3    H232127   2.945   6.370   6.355
 2892TIP3   OH232128   3.673   6.544   7.513
 2892TIP3    H132129   3.607   6.617   7.508
 2892TIP3    H232130   3.733   6.574   7.441
 2893TIP3   OH232131   3.298   6.569   6.789
 2893TIP3    H132132   3.223   6.593   6.847
 2893TIP3    H232133   3.365   6.538   6.855
 2894TIP3   OH232134   3.269   6.422   7.693
 2894TIP3    H132135   3.281   6.515   7.721
 2894TIP3    H232136   3.228   6.438   7.606
 2895TIP3   OH232137   2.448   6.656   6.963
 2895TIP3    H132138   2.470   6.728   6.901
 2895TIP3    H232139   2.536   6.617   6.980
 2896TIP3   OH232140   2.555   7.004   7.210
 2896TIP3    H132141   2.532   7.031   7.118
 2896TIP3    H232142   2.640   6.960   7.196
 2897TIP3   OH232143   2.459   6.523   7.334
 2897TIP3    H132144   2.483   6.514   7.239
 2897TIP3    H232145   2.525   6.588   7.364
 2898TIP3   OH232146   3.104   7.121   7.411
 2898TIP3    H132147   3.076   7.197   7.467
 2898TIP3    H232148   3.130   7.058   7.480
 2899TIP3   OH232149   2.549   7.012   7.811
 2899TIP3    H132150   2.494   7.071   7.867
 2899TIP3    H232151   2.487   7.004   7.734
 2900TIP3   OH232152   3.188   6.552   6.538
 2900TIP3    H132153   3.244   6.570   6.617
 2900TIP3    H232154   3.198   6.631   6.482
 2901TIP3   OH232155   2.238   6.645   7.655
 2901TIP3    H132156   2.268   6.715   7.716
 2901TIP3    H232157   2.164   6.610   7.711
 2902TIP3   OH232158   2.946   7.235   6.844
 2902TIP3    H132159   2.969   7.266   6.934
 2902TIP3    H232160   2.868   7.289   6.826
 2903TIP3   OH232161   2.372   7.191   7.888
 2903TIP3    H132162   2.366   7.202   7.791
 2903TIP3    H232163   2.285   7.150   7.908
 2904TIP3   OH232164   3.569   5.666   6.576
 2904TIP3    H132165   3.480   5.674   6.618
 2904TIP3    H232166   3.560   5.739   6.513
 2905TIP3   OH232167   2.270   6.549   6.748
 2905TIP3    H132168   2.268   6.638   6.703
 2905TIP3    H232169   2.291   6.489   6.674
 2906TIP3   OH232170   3.692   7.134   6.391
 2906TIP3    H132171   3.737   7.221   6.382
 2906TIP3    H232172   3.661   7.118   6.300
 2907TIP3   OH232173   1.969   6.835   7.593
 2907TIP3    H132174   1.897   6.839   7.527
 2907TIP3    H232175   2.006   6.746   7.576
 2908TIP3   OH232176   1.950   7.061   7.270
 2908TIP3    H132177   2.046   7.052   7.272
 2908TIP3    H232178   1.937   7.133   7.332
 2909TIP3   OH232179   3.739   7.149   7.874
 2909TIP3    H132180   3.729   7.058   7.906
 2909TIP3    H232181   3.649   7.182   7.901
 2910TIP3   OH232182   2.822   7.074   7.795
 2910TIP3    H132183   2.856   7.153   7.842
 2910TIP3    H232184   2.749   7.046   7.854
 2911TIP3   OH232185   2.868   7.471   6.710
 2911TIP3    H132186   2.872   7.486   6.614
 2911TIP3    H232187   2.868   7.559   6.751
 2912TIP3   OH232188   2.258   7.336   6.931
 2912TIP3    H132189   2.300   7.348   7.020
 2912TIP3    H232190   2.191   7.268   6.953
 2913TIP3   OH232191   3.136   7.393   6.670
 2913TIP3    H132192   3.051   7.389   6.717
 2913TIP3    H232193   3.193   7.340   6.730
 2914TIP3   OH232194   3.424   6.291   7.902
 2914TIP3    H132195   3.365   6.340   7.841
 2914TIP3    H232196   3.422   6.203   7.861
 2915TIP3   OH232197   2.201   6.933   7.720
 2915TIP3    H132198   2.189   6.896   7.810
 2915TIP3    H232199   2.112   6.924   7.681
 2916TIP3   OH232200   2.444   5.794   7.310
 2916TIP3    H132201   2.356   5.795   7.268
 2916TIP3    H232202   2.430   5.855   7.386
 2917TIP3   OH232203   2.926   5.749   7.629
 2917TIP3    H132204   2.966   5.709   7.709
 2917TIP3    H232205   2.830   5.752   7.650
 2918TIP3   OH232206   3.226   6.133   7.718
 2918TIP3    H132207   3.178   6.120   7.803
 2918TIP3    H232208   3.203   6.225   7.696
 2919TIP3   OH232209   2.887   6.045   6.418
 2919TIP3    H132210   2.842   5.992   6.487
 2919TIP3    H232211   2.824   6.039   6.345
 2920TIP3   OH232212   2.462   6.267   7.428
 2920TIP3    H132213   2.371   6.260   7.463
 2920TIP3    H232214   2.462   6.350   7.377
 2921TIP3   OH232215   2.431   6.269   6.891
 2921TIP3    H132216   2.344   6.232   6.866
 2921TIP3    H232217   2.481   6.258   6.806
 2922TIP3   OH232218   2.989   6.351   6.792
 2922TIP3    H132219   2.961   6.433   6.747
 2922TIP3    H232220   3.063   6.319   6.736
 2923TIP3   OH232221   2.921   6.372   7.932
 2923TIP3    H132222   2.861   6.303   7.971
 2923TIP3    H232223   2.998   6.364   7.990
 2924TIP3   OH232224   3.135   6.323   7.090
 2924TIP3    H132225   3.102   6.400   7.041
 2924TIP3    H232226   3.137   6.255   7.019
 2925TIP3   OH232227   2.221   6.289   7.563
 2925TIP3    H132228   2.222   6.312   7.658
 2925TIP3    H232229   2.190   6.197   7.571
 2926TIP3   OH232230   1.894   6.011   7.009
 2926TIP3    H132231   1.962   6.009   7.077
 2926TIP3    H232232   1.941   6.029   6.926
 2927TIP3   OH232233   1.963   6.090   6.526
 2927TIP3    H132234   2.052   6.122   6.505
 2927TIP3    H232235   1.924   6.166   6.570
 2928TIP3   OH232236   3.007   6.408   7.500
 2928TIP3    H132237   3.070   6.339   7.467
 2928TIP3    H232238   2.958   6.365   7.573
 2929TIP3   OH232239   2.718   6.082   7.024
 2929TIP3    H132240   2.624   6.063   7.044
 2929TIP3    H232241   2.763   6.011   7.073
 2930TIP3   OH232242   2.172   6.211   6.908
 2930TIP3    H132243   2.094   6.234   6.854
 2930TIP3    H232244   2.189   6.116   6.884
 2931TIP3   OH232245   2.542   6.251   6.644
 2931TIP3    H132246   2.628   6.219   6.680
 2931TIP3    H232247   2.572   6.300   6.566
 2932TIP3   OH232248   3.157   5.966   7.331
 2932TIP3    H132249   3.080   5.960   7.390
 2932TIP3    H232250   3.135   5.912   7.253
 2933TIP3   OH232251   3.408   7.541   7.996
 2933TIP3    H132252   3.438   7.558   7.904
 2933TIP3    H232253   3.494   7.555   8.043
 2934TIP3   OH232254   2.248   6.753   7.942
 2934TIP3    H132255   2.316   6.785   8.004
 2934TIP3    H232256   2.168   6.753   7.999
 2935TIP3   OH232257   2.778   6.371   7.179
 2935TIP3    H132258   2.843   6.322   7.125
 2935TIP3    H232259   2.792   6.327   7.263
 2936TIP3   OH232260   2.262   5.961   6.851
 2936TIP3    H132261   2.215   5.880   6.880
 2936TIP3    H232262   2.300   5.933   6.764
 2937TIP3   OH232263   2.705   6.145   7.419
 2937TIP3    H132264   2.626   6.201   7.409
 2937TIP3    H232265   2.764   6.199   7.474
 2938TIP3   OH232266   2.697   6.828   6.578
 2938TIP3    H132267   2.685   6.752   6.515
 2938TIP3    H232268   2.701   6.780   6.661
 2939TIP3   OH232269   3.505   6.743   7.500
 2939TIP3    H132270   3.540   6.794   7.423
 2939TIP3    H232271   3.411   6.734   7.476
 2940TIP3   OH232272   3.142   6.070   6.495
 2940TIP3    H132273   3.057   6.061   6.445
 2940TIP3    H232274   3.154   6.166   6.496
 2941TIP3   OH232275   2.802   6.797   7.717
 2941TIP3    H132276   2.878   6.735   7.721
 2941TIP3    H232277   2.842   6.866   7.774
 2942TIP3   OH232278   3.207   6.303   6.617
 2942TIP3    H132279   3.292   6.282   6.659
 2942TIP3    H232280   3.224   6.391   6.576
 2943TIP3   OH232281   2.279   6.734   7.179
 2943TIP3    H132282   2.346   6.736   7.108
 2943TIP3    H232283   2.312   6.665   7.239
 2944TIP3   OH232284   2.945   6.962   6.585
 2944TIP3    H132285   2.886   7.037   6.564
 2944TIP3    H232286   2.885   6.886   6.573
 2945TIP3   OH232287   1.979   6.545   7.738
 2945TIP3    H132288   1.958   6.490   7.816
 2945TIP3    H232289   1.910   6.517   7.674
 2946TIP3   OH232290   2.670   6.528   7.899
 2946TIP3    H132291   2.693   6.437   7.874
 2946TIP3    H232292   2.759   6.568   7.907
 2947TIP3   OH232293   3.161   7.079   7.748
 2947TIP3    H132294   3.079   7.034   7.774
 2947TIP3    H232295   3.208   7.071   7.833
 2948TIP3   OH232296   3.707   6.244   6.595
 2948TIP3    H132297   3.627   6.253   6.540
 2948TIP3    H232298   3.770   6.292   6.539
 2949TIP3   OH232299   3.712   6.863   7.839
 2949TIP3    H132300   3.621   6.882   7.807
 2949TIP3    H232301   3.764   6.865   7.755
 2950TIP3   OH232302   3.546   7.123   6.633
 2950TIP3    H132303   3.483   7.050   6.626
 2950TIP3    H232304   3.591   7.120   6.546
 2951TIP3   OH232305   3.242   6.654   7.330
 2951TIP3    H132306   3.153   6.632   7.298
 2951TIP3    H232307   3.295   6.583   7.291
 2952TIP3   OH232308   2.490   7.078   6.962
 2952TIP3    H132309   2.517   7.165   6.924
 2952TIP3    H232310   2.398   7.072   6.933
 2953TIP3   OH232311   2.620   6.849   6.887
 2953TIP3    H132312   2.605   6.943   6.865
 2953TIP3    H232313   2.655   6.857   6.977
 2954TIP3   OH232314   2.706   7.198   7.577
 2954TIP3    H132315   2.748   7.273   7.530
 2954TIP3    H232316   2.750   7.208   7.664
 2955TIP3   OH232317   2.509   7.336   6.838
 2955TIP3    H132318   2.414   7.343   6.862
 2955TIP3    H232319   2.540   7.425   6.869
 2956TIP3   OH232320   3.030   6.828   7.532
 2956TIP3    H132321   3.053   6.815   7.626
 2956TIP3    H232322   3.108   6.793   7.488
 2957TIP3   OH232323   3.315   7.308   7.746
 2957TIP3    H132324   3.236   7.252   7.725
 2957TIP3    H232325   3.322   7.367   7.668
 2958TIP3   OH232326   3.740   7.403   6.422
 2958TIP3    H132327   3.759   7.459   6.345
 2958TIP3    H232328   3.663   7.448   6.463
 2959TIP3   OH232329   2.155   6.051   7.662
 2959TIP3    H132330   2.068   6.095   7.662
 2959TIP3    H232331   2.146   5.992   7.740
 2960TIP3   OH232332   3.340   6.820   6.665
 2960TIP3    H132333   3.332   6.735   6.712
 2960TIP3    H232334   3.379   6.795   6.580
 2961TIP3   OH232335   2.106   7.202   7.513
 2961TIP3    H132336   2.172   7.136   7.537
 2961TIP3    H232337   2.133   7.280   7.565
 2962TIP3   OH232338   2.692   7.064   6.231
 2962TIP3    H132339   2.721   6.975   6.207
 2962TIP3    H232340   2.622   7.044   6.294
 2963TIP3   OH232341   2.530   7.026   6.491
 2963TIP3    H132342   2.579   6.949   6.525
 2963TIP3    H232343   2.562   7.101   6.544
 2964TIP3   OH232344   2.257   6.776   6.593
 2964TIP3    H132345   2.175   6.821   6.623
 2964TIP3    H232346   2.295   6.833   6.525
 2965TIP3   OH232347   2.999   6.028   7.599
 2965TIP3    H132348   3.089   6.035   7.637
 2965TIP3    H232349   2.974   5.937   7.626
 2966TIP3   OH232350   3.084   5.979   6.736
 2966TIP3    H132351   3.111   6.009   6.648
 2966TIP3    H232352   3.128   6.045   6.794
 2967TIP3   OH232353   2.865   7.233   6.552
 2967TIP3    H132354   2.774   7.241   6.585
 2967TIP3    H232355   2.916   7.230   6.636
 2968TIP3   OH232356   2.767   6.187   6.768
 2968TIP3    H132357   2.851   6.239   6.777
 2968TIP3    H232358   2.758   6.142   6.855
 2969TIP3   OH232359   2.871   6.271   7.690
 2969TIP3    H132360   2.889   6.306   7.781
 2969TIP3    H232361   2.910   6.181   7.691
 2970TIP3   OH232362   2.867   5.860   6.836
 2970TIP3    H132363   2.851   5.885   6.929
 2970TIP3    H232364   2.951   5.911   6.816
 2971TIP3   OH232365   2.588   7.277   6.598
 2971TIP3    H132366   2.574   7.363   6.557
 2971TIP3    H232367   2.544   7.290   6.686
 2972TIP3   OH232368   2.425   5.958   6.623
 2972TIP3    H132369   2.429   6.033   6.563
 2972TIP3    H232370   2.509   5.915   6.602
 2973TIP3   OH232371   3.460   6.027   7.771
 2973TIP3    H132372   3.362   6.035   7.761
 2973TIP3    H232373   3.491   6.046   7.680
 2974TIP3   OH232374   3.369   6.435   7.177
 2974TIP3    H132375   3.290   6.378   7.170
 2974TIP3    H232376   3.434   6.374   7.219
 2975TIP3   OH232377   2.043   6.294   6.306
 2975TIP3    H132378   2.137   6.286   6.328
 2975TIP3    H232379   2.031   6.208   6.263
 2976TIP3   OH232380   3.466   7.414   7.358
 2976TIP3    H132381   3.440   7.452   7.270
 2976TIP3    H232382   3.562   7.402   7.338
 2977TIP3   OH232383   2.177   5.756   7.252
 2977TIP3    H132384   2.175   5.753   7.153
 2977TIP3    H232385   2.151   5.663   7.271
 2978TIP3   OH232386   2.075   7.120   6.870
 2978TIP3    H132387   2.006   7.167   6.919
 2978TIP3    H232388   2.076   7.171   6.788
 2979TIP3   OH232389   1.990   7.411   7.980
 2979TIP3    H132390   2.080   7.410   8.017
 2979TIP3    H232391   1.964   7.317   7.978
 2980TIP3   OH232392   2.516   7.251   8.142
 2980TIP3    H132393   2.600   7.209   8.117
 2980TIP3    H232394   2.467   7.245   8.058
 2981TIP3   OH232395   3.112   7.189   8.019
 2981TIP3    H132396   3.093   7.099   8.054
 2981TIP3    H232397   3.197   7.208   8.062
 2982TIP3   OH232398   1.987   6.787   8.036
 2982TIP3    H132399   1.951   6.699   8.022
 2982TIP3    H232400   1.945   6.836   7.962
 2983TIP3   OH232401   2.629   6.786   7.967
 2983TIP3    H132402   2.621   6.839   7.886
 2983TIP3    H232403   2.633   6.694   7.933
 2984TIP3   OH232404   3.296   6.715   7.706
 2984TIP3    H132405   3.376   6.762   7.736
 2984TIP3    H232406   3.230   6.772   7.750
 2985TIP3   OH232407   2.136   6.447   8.008
 2985TIP3    H132408   2.168   6.370   8.057
 2985TIP3    H232409   2.138   6.515   8.079
 2986TIP3   OH232410   2.476   6.423   7.728
 2986TIP3    H132411   2.488   6.468   7.814
 2986TIP3    H232412   2.558   6.449   7.679
 2987TIP3   OH232413   2.992   6.653   8.136
 2987TIP3    H132414   3.018   6.677   8.044
 2987TIP3    H232415   3.028   6.564   8.145
 2988TIP3   OH232416   3.613   6.679   6.269
 2988TIP3    H132417   3.587   6.623   6.196
 2988TIP3    H232418   3.562   6.761   6.244
 2989TIP3   OH232419   2.559   6.161   7.805
 2989TIP3    H132420   2.583   6.089   7.741
 2989TIP3    H232421   2.549   6.237   7.746
 2990TIP3   OH232422   2.591   5.989   7.607
 2990TIP3    H132423   2.651   6.028   7.540
 2990TIP3    H232424   2.504   5.994   7.562
 2991TIP3   OH232425   2.676   6.533   7.582
 2991TIP3    H132426   2.772   6.535   7.578
 2991TIP3    H232427   2.653   6.628   7.568
 2992TIP3   OH232428   3.152   6.285   8.118
 2992TIP3    H132429   3.172   6.193   8.141
 2992TIP3    H232430   3.241   6.322   8.104
 2993TIP3   OH232431   3.297   6.616   7.975
 2993TIP3    H132432   3.231   6.661   7.918
 2993TIP3    H232433   3.375   6.608   7.916
 2994TIP3   OH232434   2.401   6.235   8.029
 2994TIP3    H132435   2.313   6.192   8.016
 2994TIP3    H232436   2.443   6.215   7.944
 2995TIP3   OH232437   2.657   5.726   7.612
 2995TIP3    H132438   2.621   5.817   7.622
 2995TIP3    H232439   2.580   5.680   7.575
 2996TIP3   OH232440   2.769   6.165   8.013
 2996TIP3    H132441   2.718   6.162   8.096
 2996TIP3    H232442   2.702   6.133   7.948
 2997TIP3   OH232443   3.045   6.075   7.910
 2997TIP3    H132444   2.954   6.085   7.944
 2997TIP3    H232445   3.083   6.018   7.980
 2998TIP3   OH232446   3.147   5.920   8.092
 2998TIP3    H132447   3.185   5.831   8.105
 2998TIP3    H232448   3.169   5.965   8.178
 2999TIP3   OH232449   2.178   6.067   8.042
 2999TIP3    H132450   2.161   5.989   7.987
 2999TIP3    H232451   2.155   6.035   8.132
 3000TIP3   OH232452   2.623   5.666   7.885
 3000TIP3    H132453   2.712   5.629   7.900
 3000TIP3    H232454   2.623   5.663   7.787
 3001TIP3   OH232455   2.656   5.787   8.173
 3001TIP3    H132456   2.633   5.747   8.087
 3001TIP3    H232457   2.641   5.881   8.153
 3002TIP3   OH232458   2.620   7.463   6.396
 3002TIP3    H132459   2.708   7.432   6.420
 3002TIP3    H232460   2.586   7.391   6.339
 3003TIP3   OH232461   1.906   7.490   6.871
 3003TIP3    H132462   1.854   7.435   6.808
 3003TIP3    H232463   1.914   7.426   6.946
 3004TIP3   OH232464   1.956   7.323   7.081
 3004TIP3    H132465   1.885   7.289   7.138
 3004TIP3    H232466   2.027   7.334   7.148
 3005TIP3   OH232467   3.731   7.415   7.333
 3005TIP3    H132468   3.720   7.404   7.429
 3005TIP3    H232469   3.779   7.500   7.336
 3006TIP3   OH232470   3.667   7.351   7.657
 3006TIP3    H132471   3.635   7.275   7.604
 3006TIP3    H232472   3.709   7.303   7.730
 3007TIP3   OH232473   3.546   6.934   8.152
 3007TIP3    H132474   3.453   6.939   8.184
 3007TIP3    H232475   3.583   7.021   8.183
 3008TIP3   OH232476   3.716   6.783   6.664
 3008TIP3    H132477   3.663   6.860   6.690
 3008TIP3    H232478   3.699   6.720   6.739
 3009TIP3   OH232479   3.687   6.588   6.866
 3009TIP3    H132480   3.604   6.538   6.885
 3009TIP3    H232481   3.733   6.584   6.953
 3010TIP3   OH232482   3.651   6.856   7.313
 3010TIP3    H132483   3.718   6.784   7.313
 3010TIP3    H232484   3.703   6.933   7.282
 3011TIP3   OH232485   3.515   7.135   7.567
 3011TIP3    H132486   3.445   7.167   7.625
 3011TIP3    H232487   3.468   7.124   7.482
 3012TIP3   OH232488   3.756   6.582   6.478
 3012TIP3    H132489   3.703   6.621   6.404
 3012TIP3    H232490   3.743   6.652   6.546
 3013TIP3   OH232491   3.483   6.433   6.930
 3013TIP3    H132492   3.457   6.343   6.903
 3013TIP3    H232493   3.457   6.437   7.025
 3014TIP3   OH232494   1.971   6.646   7.313
 3014TIP3    H132495   1.945   6.612   7.224
 3014TIP3    H232496   2.064   6.618   7.314
 3015TIP3   OH232497   3.572   6.615   7.862
 3015TIP3    H132498   3.614   6.529   7.883
 3015TIP3    H232499   3.647   6.676   7.843
 3016TIP3   OH232500   3.673   6.372   7.982
 3016TIP3    H132501   3.588   6.336   7.949
 3016TIP3    H232502   3.735   6.299   7.958
 3017TIP3   OH232503   3.458   6.049   6.235
 3017TIP3    H132504   3.520   6.000   6.291
 3017TIP3    H232505   3.376   5.996   6.238
 3018TIP3   OH232506   3.427   6.199   6.770
 3018TIP3    H132507   3.428   6.100   6.773
 3018TIP3    H232508   3.513   6.209   6.727
 3019TIP3   OH232509   3.525   6.263   7.305
 3019TIP3    H132510   3.624   6.268   7.306
 3019TIP3    H232511   3.505   6.275   7.399
 3020TIP3   OH232512   3.521   6.324   7.565
 3020TIP3    H132513   3.438   6.345   7.611
 3020TIP3    H232514   3.560   6.412   7.543
 3021TIP3   OH232515   1.965   6.164   7.901
 3021TIP3    H132516   2.046   6.141   7.952
 3021TIP3    H232517   1.910   6.084   7.919
 3022TIP3   OH232518   3.724   5.758   8.082
 3022TIP3    H132519   3.768   5.684   8.034
 3022TIP3    H232520   3.721   5.826   8.012
 3023TIP3   OH232521   3.473   5.932   6.773
 3023TIP3    H132522   3.521   5.892   6.848
 3023TIP3    H232523   3.419   5.856   6.741
 3024TIP3   OH232524   2.045   5.995   7.261
 3024TIP3    H132525   2.079   5.903   7.265
 3024TIP3    H232526   2.128   6.047   7.260
 3025TIP3   OH232527   1.912   6.292   7.343
 3025TIP3    H132528   1.931   6.204   7.309
 3025TIP3    H232529   1.974   6.351   7.295
 3026TIP3   OH232530   3.660   5.968   7.933
 3026TIP3    H132531   3.589   5.996   7.994
 3026TIP3    H232532   3.608   5.936   7.857
 3027TIP3   OH232533   3.706   5.929   6.412
 3027TIP3    H132534   3.770   5.889   6.475
 3027TIP3    H232535   3.700   6.020   6.445
 3028TIP3   OH232536   1.922   5.939   6.743
 3028TIP3    H132537   1.826   5.936   6.757
 3028TIP3    H232538   1.926   5.966   6.650
 3029TIP3   OH232539   3.353   7.405   6.867
 3029TIP3    H132540   3.447   7.399   6.843
 3029TIP3    H232541   3.356   7.481   6.929
 3030TIP3   OH232542   1.910   5.776   7.554
 3030TIP3    H132543   1.845   5.738   7.616
 3030TIP3    H232544   1.858   5.835   7.498
 3031TIP3   OH232545   2.133   7.078   7.967
 3031TIP3    H132546   2.049   7.075   7.919
 3031TIP3    H232547   2.104   7.093   8.058
 3032TIP3   OH232548   2.417   7.232   7.623
 3032TIP3    H132549   2.407   7.328   7.599
 3032TIP3    H232550   2.515   7.227   7.630
 3033TIP3   OH232551   2.847   7.341   7.883
 3033TIP3    H132552   2.837   7.320   7.977
 3033TIP3    H232553   2.924   7.400   7.884
 3034TIP3   OH232554   3.104   7.504   7.830
 3034TIP3    H132555   3.171   7.437   7.805
 3034TIP3    H232556   3.132   7.525   7.921
 3035TIP3   OH232557   3.573   5.714   7.747
 3035TIP3    H132558   3.498   5.764   7.713
 3035TIP3    H232559   3.563   5.627   7.704
 3036TIP3   OH232560   2.120   7.478   7.599
 3036TIP3    H132561   2.035   7.502   7.555
 3036TIP3    H232562   2.120   7.544   7.671
 3037TIP3   OH232563   2.384   7.488   7.531
 3037TIP3    H132564   2.288   7.492   7.555
 3037TIP3    H232565   2.381   7.517   7.439
 3038TIP3   OH232566   2.862   7.458   7.454
 3038TIP3    H132567   2.800   7.496   7.388
 3038TIP3    H232568   2.879   7.536   7.510
 3039TIP3   OH232569   3.062   7.333   7.577
 3039TIP3    H132570   2.993   7.379   7.524
 3039TIP3    H232571   3.138   7.390   7.562
 3040TIP3   OH232572   3.322   7.516   7.562
 3040TIP3    H132573   3.305   7.604   7.526
 3040TIP3    H232574   3.368   7.475   7.484
 3041TIP3   OH232575   2.120   7.346   7.291
 3041TIP3    H132576   2.097   7.295   7.372
 3041TIP3    H232577   2.209   7.311   7.269
 3042TIP3   OH232578   2.356   7.307   7.168
 3042TIP3    H132579   2.344   7.211   7.185
 3042TIP3    H232580   2.444   7.321   7.210
 3043TIP3   OH232581   2.576   7.280   7.304
 3043TIP3    H132582   2.591   7.185   7.295
 3043TIP3    H232583   2.592   7.297   7.398
 3044TIP3   OH232584   2.880   5.849   7.105
 3044TIP3    H132585   2.807   5.818   7.163
 3044TIP3    H232586   2.942   5.775   7.112
 3045TIP3   OH232587   3.457   5.691   7.165
 3045TIP3    H132588   3.518   5.749   7.113
 3045TIP3    H232589   3.369   5.713   7.129
 3046TIP3   OH232590   3.618   5.816   6.977
 3046TIP3    H132591   3.681   5.765   6.924
 3046TIP3    H232592   3.675   5.888   7.015
 3047TIP3   OH232593   2.161   5.739   6.978
 3047TIP3    H132594   2.073   5.720   6.939
 3047TIP3    H232595   2.208   5.655   6.960
 3048TIP3   OH232596   2.021   5.751   6.480
 3048TIP3    H132597   2.102   5.738   6.424
 3048TIP3    H232598   2.047   5.827   6.534
 3049TIP3   OH232599   2.581   5.725   6.945
 3049TIP3    H132600   2.660   5.730   6.888
 3049TIP3    H232601   2.618   5.749   7.031
 3050TIP3   OH232602   3.191   5.735   7.070
 3050TIP3    H132603   3.178   5.739   6.974
 3050TIP3    H232604   3.147   5.650   7.094
 3051TIP3   OH232605   3.332   5.721   6.662
 3051TIP3    H132606   3.263   5.755   6.605
 3051TIP3    H232607   3.285   5.645   6.704
 3052TIP3   OH232608   2.029   7.317   6.665
 3052TIP3    H132609   1.951   7.338   6.609
 3052TIP3    H232610   2.065   7.407   6.676
 3053TIP3   OH232611   2.728   5.943   6.621
 3053TIP3    H132612   2.783   5.906   6.692
 3053TIP3    H232613   2.736   6.038   6.641
 3054TIP3   OH232614   2.927   7.482   6.444
 3054TIP3    H132615   3.014   7.473   6.487
 3054TIP3    H232616   2.910   7.389   6.421
 3055TIP3   OH232617   3.619   7.366   6.745
 3055TIP3    H132618   3.582   7.280   6.713
 3055TIP3    H232619   3.580   7.430   6.682
 3056TIP3   OH232620   2.129   5.798   7.887
 3056TIP3    H132621   2.072   5.719   7.897
 3056TIP3    H232622   2.196   5.784   7.957
 3057TIP3   OH232623   2.341   5.740   8.078
 3057TIP3    H132624   2.414   5.695   8.031
 3057TIP3    H232625   2.304   5.667   8.131
 3058TIP3   OH232626   3.184   5.657   8.108
 3058TIP3    H132627   3.202   5.615   8.195
 3058TIP3    H232628   3.271   5.647   8.063
 3059TIP3   OH232629   3.501   7.251   7.933
 3059TIP3    H132630   3.416   7.251   7.883
 3059TIP3    H232631   3.520   7.346   7.938
 3060TIP3   OH232632   4.976   6.663   6.925
 3060TIP3    H132633   4.970   6.757   6.948
 3060TIP3    H232634   4.912   6.656   6.851
 3061TIP3   OH232635   4.847   6.545   7.258
 3061TIP3    H132636   4.834   6.506   7.347
 3061TIP3    H232637   4.794   6.489   7.199
 3062TIP3   OH232638   4.060   6.535   7.408
 3062TIP3    H132639   4.061   6.458   7.469
 3062TIP3    H232640   4.112   6.597   7.461
 3063TIP3   OH232641   5.156   6.870   7.150
 3063TIP3    H132642   5.132   6.794   7.205
 3063TIP3    H232643   5.183   6.935   7.217
 3064TIP3   OH232644   4.172   7.011   7.258
 3064TIP3    H132645   4.129   6.925   7.240
 3064TIP3    H232646   4.262   6.975   7.269
 3065TIP3   OH232647   3.853   6.350   6.810
 3065TIP3    H132648   3.798   6.424   6.839
 3065TIP3    H232649   3.800   6.317   6.736
 3066TIP3   OH232650   3.870   6.566   7.071
 3066TIP3    H132651   3.910   6.476   7.081
 3066TIP3    H232652   3.941   6.619   7.033
 3067TIP3   OH232653   4.877   7.400   7.109
 3067TIP3    H132654   4.947   7.343   7.070
 3067TIP3    H232655   4.855   7.343   7.184
 3068TIP3   OH232656   4.678   6.840   7.334
 3068TIP3    H132657   4.708   6.788   7.257
 3068TIP3    H232658   4.763   6.847   7.384
 3069TIP3   OH232659   5.537   5.967   7.366
 3069TIP3    H132660   5.557   6.017   7.448
 3069TIP3    H232661   5.614   5.992   7.312
 3070TIP3   OH232662   5.029   6.278   7.380
 3070TIP3    H132663   5.058   6.192   7.416
 3070TIP3    H232664   5.011   6.255   7.287
 3071TIP3   OH232665   4.312   6.052   7.057
 3071TIP3    H132666   4.341   6.134   7.010
 3071TIP3    H232667   4.253   6.016   6.988
 3072TIP3   OH232668   5.085   6.097   6.940
 3072TIP3    H132669   5.138   6.040   7.001
 3072TIP3    H232670   5.151   6.152   6.895
 3073TIP3   OH232671   3.976   6.319   7.131
 3073TIP3    H132672   4.035   6.284   7.201
 3073TIP3    H232673   4.014   6.277   7.051
 3074TIP3   OH232674   4.437   6.459   7.091
 3074TIP3    H132675   4.527   6.423   7.098
 3074TIP3    H232676   4.396   6.390   7.033
 3075TIP3   OH232677   5.566   6.129   7.602
 3075TIP3    H132678   5.516   6.204   7.562
 3075TIP3    H232679   5.554   6.150   7.696
 3076TIP3   OH232680   4.230   5.966   7.494
 3076TIP3    H132681   4.193   6.012   7.416
 3076TIP3    H232682   4.166   5.995   7.561
 3077TIP3   OH232683   4.917   6.916   6.838
 3077TIP3    H132684   4.925   6.923   6.741
 3077TIP3    H232685   4.865   6.994   6.858
 3078TIP3   OH232686   4.452   6.744   7.446
 3078TIP3    H132687   4.407   6.820   7.489
 3078TIP3    H232688   4.534   6.787   7.413
 3079TIP3   OH232689   5.266   6.003   7.109
 3079TIP3    H132690   5.278   5.944   7.185
 3079TIP3    H232691   5.328   6.074   7.133
 3080TIP3   OH232692   4.169   6.151   7.274
 3080TIP3    H132693   4.228   6.216   7.319
 3080TIP3    H232694   4.225   6.120   7.200
 3081TIP3   OH232695   4.310   6.953   7.555
 3081TIP3    H132696   4.293   7.049   7.553
 3081TIP3    H232697   4.228   6.922   7.598
 3082TIP3   OH232698   5.260   7.069   7.333
 3082TIP3    H132699   5.165   7.091   7.349
 3082TIP3    H232700   5.289   7.148   7.285
 3083TIP3   OH232701   5.274   5.875   7.454
 3083TIP3    H132702   5.198   5.911   7.404
 3083TIP3    H232703   5.351   5.917   7.410
 3084TIP3   OH232704   4.570   5.709   7.212
 3084TIP3    H132705   4.545   5.615   7.213
 3084TIP3    H232706   4.486   5.749   7.246
 3085TIP3   OH232707   5.085   7.244   7.033
 3085TIP3    H132708   5.104   7.168   6.975
 3085TIP3    H232709   5.159   7.304   7.008
 3086TIP3   OH232710   5.234   7.041   6.841
 3086TIP3    H132711   5.230   6.963   6.782
 3086TIP3    H232712   5.228   6.997   6.927
 3087TIP3   OH232713   5.363   6.888   7.713
 3087TIP3    H132714   5.377   6.817   7.646
 3087TIP3    H232715   5.376   6.965   7.654
 3088TIP3   OH232716   4.816   6.587   6.681
 3088TIP3    H132717   4.755   6.654   6.642
 3088TIP3    H232718   4.871   6.562   6.604
 3089TIP3   OH232719   4.813   6.421   6.391
 3089TIP3    H132720   4.902   6.446   6.418
 3089TIP3    H232721   4.829   6.380   6.304
 3090TIP3   OH232722   5.570   6.535   7.502
 3090TIP3    H132723   5.510   6.610   7.521
 3090TIP3    H232724   5.625   6.575   7.432
 3091TIP3   OH232725   5.198   6.568   6.793
 3091TIP3    H132726   5.121   6.601   6.847
 3091TIP3    H232727   5.261   6.543   6.863
 3092TIP3   OH232728   5.048   6.377   7.715
 3092TIP3    H132729   5.116   6.442   7.743
 3092TIP3    H232730   5.023   6.419   7.632
 3093TIP3   OH232731   4.337   6.669   6.965
 3093TIP3    H132732   4.300   6.625   6.886
 3093TIP3    H232733   4.387   6.594   7.004
 3094TIP3   OH232734   4.458   6.993   7.216
 3094TIP3    H132735   4.472   6.930   7.143
 3094TIP3    H232736   4.531   6.962   7.275
 3095TIP3   OH232737   4.343   6.529   7.338
 3095TIP3    H132738   4.380   6.528   7.247
 3095TIP3    H232739   4.392   6.605   7.378
 3096TIP3   OH232740   5.002   7.107   7.403
 3096TIP3    H132741   4.962   7.180   7.454
 3096TIP3    H232742   4.966   7.028   7.450
 3097TIP3   OH232743   4.448   6.967   7.797
 3097TIP3    H132744   4.385   7.025   7.846
 3097TIP3    H232745   4.406   6.962   7.708
 3098TIP3   OH232746   5.052   6.545   6.555
 3098TIP3    H132747   5.100   6.579   6.633
 3098TIP3    H232748   5.105   6.588   6.483
 3099TIP3   OH232749   4.145   6.616   7.668
 3099TIP3    H132750   4.163   6.697   7.717
 3099TIP3    H232751   4.084   6.571   7.728
 3100TIP3   OH232752   4.748   7.218   6.882
 3100TIP3    H132753   4.829   7.234   6.931
 3100TIP3    H232754   4.747   7.290   6.816
 3101TIP3   OH232755   4.276   7.158   7.888
 3101TIP3    H132756   4.265   7.177   7.793
 3101TIP3    H232757   4.185   7.129   7.912
 3102TIP3   OH232758   5.410   5.667   6.580
 3102TIP3    H132759   5.317   5.691   6.599
 3102TIP3    H232760   5.428   5.721   6.500
 3103TIP3   OH232761   4.218   6.546   6.749
 3103TIP3    H132762   4.149   6.607   6.719
 3103TIP3    H232763   4.191   6.462   6.709
 3104TIP3   OH232764   3.864   6.815   7.617
 3104TIP3    H132765   3.810   6.807   7.537
 3104TIP3    H232766   3.869   6.720   7.643
 3105TIP3   OH232767   3.847   7.064   7.269
 3105TIP3    H132768   3.943   7.057   7.269
 3105TIP3    H232769   3.833   7.144   7.321
 3106TIP3   OH232770   5.622   7.182   7.875
 3106TIP3    H132771   5.622   7.084   7.882
 3106TIP3    H232772   5.533   7.202   7.911
 3107TIP3   OH232773   4.695   7.118   7.767
 3107TIP3    H132774   4.697   7.204   7.815
 3107TIP3    H232775   4.604   7.087   7.773
 3108TIP3   OH232776   4.782   7.465   6.706
 3108TIP3    H132777   4.810   7.513   6.626
 3108TIP3    H232778   4.743   7.536   6.759
 3109TIP3   OH232779   4.158   7.294   6.931
 3109TIP3    H132780   4.089   7.303   6.999
 3109TIP3    H232781   4.112   7.229   6.873
 3110TIP3   OH232782   5.030   7.345   6.689
 3110TIP3    H132783   4.947   7.376   6.729
 3110TIP3    H232784   5.057   7.270   6.744
 3111TIP3   OH232785   5.278   6.249   7.926
 3111TIP3    H132786   5.300   6.317   7.858
 3111TIP3    H232787   5.336   6.177   7.898
 3112TIP3   OH232788   4.082   6.938   7.704
 3112TIP3    H132789   4.078   6.899   7.794
 3112TIP3    H232790   3.999   6.899   7.666
 3113TIP3   OH232791   4.341   5.796   7.315
 3113TIP3    H132792   4.253   5.781   7.276
 3113TIP3    H232793   4.318   5.860   7.386
 3114TIP3   OH232794   4.813   5.754   7.622
 3114TIP3    H132795   4.861   5.719   7.701
 3114TIP3    H232796   4.719   5.751   7.653
 3115TIP3   OH232797   5.099   6.116   7.752
 3115TIP3    H132798   5.061   6.110   7.843
 3115TIP3    H232799   5.088   6.212   7.738
 3116TIP3   OH232800   5.211   6.655   6.372
 3116TIP3    H132801   5.190   6.649   6.276
 3116TIP3    H232802   5.288   6.713   6.375
 3117TIP3   OH232803   4.341   6.276   7.436
 3117TIP3    H132804   4.268   6.287   7.499
 3117TIP3    H232805   4.345   6.367   7.398
 3118TIP3   OH232806   4.347   6.268   6.914
 3118TIP3    H132807   4.250   6.262   6.899
 3118TIP3    H232808   4.380   6.274   6.821
 3119TIP3   OH232809   4.920   6.341   6.775
 3119TIP3    H132810   4.885   6.431   6.754
 3119TIP3    H232811   4.962   6.314   6.692
 3120TIP3   OH232812   4.783   6.384   7.947
 3120TIP3    H132813   4.747   6.296   7.970
 3120TIP3    H232814   4.874   6.378   7.981
 3121TIP3   OH232815   4.965   6.304   7.097
 3121TIP3    H132816   4.976   6.391   7.054
 3121TIP3    H232817   4.977   6.244   7.021
 3122TIP3   OH232818   4.087   6.287   7.561
 3122TIP3    H132819   4.125   6.324   7.642
 3122TIP3    H232820   4.058   6.199   7.593
 3123TIP3   OH232821   3.793   6.019   7.022
 3123TIP3    H132822   3.856   6.027   7.096
 3123TIP3    H232823   3.844   6.043   6.943
 3124TIP3   OH232824   4.886   6.475   7.513
 3124TIP3    H132825   4.957   6.426   7.465
 3124TIP3    H232826   4.850   6.408   7.575
 3125TIP3   OH232827   4.620   6.021   7.025
 3125TIP3    H132828   4.524   6.034   7.033
 3125TIP3    H232829   4.650   6.026   7.117
 3126TIP3   OH232830   4.080   6.221   6.897
 3126TIP3    H132831   4.004   6.252   6.843
 3126TIP3    H232832   4.101   6.132   6.861
 3127TIP3   OH232833   4.407   6.237   6.644
 3127TIP3    H132834   4.466   6.162   6.661
 3127TIP3    H232835   4.359   6.207   6.565
 3128TIP3   OH232836   5.055   5.973   7.331
 3128TIP3    H132837   4.984   5.970   7.398
 3128TIP3    H232838   5.014   5.922   7.258
 3129TIP3   OH232839   5.311   7.536   7.978
 3129TIP3    H132840   5.335   7.575   7.892
 3129TIP3    H232841   5.390   7.556   8.032
 3130TIP3   OH232842   4.110   6.780   7.938
 3130TIP3    H132843   4.175   6.811   8.004
 3130TIP3    H232844   4.033   6.761   7.995
 3131TIP3   OH232845   4.687   6.331   7.157
 3131TIP3    H132846   4.777   6.296   7.139
 3131TIP3    H232847   4.682   6.318   7.253
 3132TIP3   OH232848   4.159   5.959   6.862
 3132TIP3    H132849   4.110   5.881   6.898
 3132TIP3    H232850   4.219   5.917   6.799
 3133TIP3   OH232851   4.590   6.154   7.437
 3133TIP3    H132852   4.508   6.206   7.431
 3133TIP3    H232853   4.641   6.200   7.505
 3134TIP3   OH232854   4.651   6.791   6.621
 3134TIP3    H132855   4.556   6.777   6.610
 3134TIP3    H232856   4.649   6.820   6.714
 3135TIP3   OH232857   5.413   6.758   7.481
 3135TIP3    H132858   5.444   6.793   7.394
 3135TIP3    H232859   5.325   6.727   7.457
 3136TIP3   OH232860   4.993   6.071   6.442
 3136TIP3    H132861   4.972   6.089   6.349
 3136TIP3    H232862   5.023   6.159   6.471
 3137TIP3   OH232863   4.765   6.816   7.761
 3137TIP3    H132864   4.737   6.769   7.841
 3137TIP3    H232865   4.733   6.906   7.776
 3138TIP3   OH232866   5.097   6.282   6.570
 3138TIP3    H132867   5.160   6.258   6.641
 3138TIP3    H232868   5.106   6.379   6.565
 3139TIP3   OH232869   4.177   6.738   7.199
 3139TIP3    H132870   4.238   6.708   7.129
 3139TIP3    H232871   4.169   6.657   7.253
 3140TIP3   OH232872   4.866   6.944   6.567
 3140TIP3    H132873   4.811   7.025   6.560
 3140TIP3    H232874   4.797   6.875   6.570
 3141TIP3   OH232875   3.847   6.563   7.741
 3141TIP3    H132876   3.865   6.496   7.811
 3141TIP3    H232877   3.777   6.522   7.688
 3142TIP3   OH232878   4.524   6.518   7.909
 3142TIP3    H132879   4.522   6.440   7.851
 3142TIP3    H232880   4.620   6.520   7.927
 3143TIP3   OH232881   5.028   7.056   7.761
 3143TIP3    H132882   4.936   7.068   7.735
 3143TIP3    H232883   5.023   7.093   7.851
 3144TIP3   OH232884   5.608   6.923   7.838
 3144TIP3    H132885   5.513   6.913   7.813
 3144TIP3    H232886   5.654   6.879   7.762
 3145TIP3   OH232887   5.423   7.159   6.617
 3145TIP3    H132888   5.351   7.099   6.640
 3145TIP3    H232889   5.440   7.140   6.523
 3146TIP3   OH232890   5.131   6.637   7.321
 3146TIP3    H132891   5.039   6.608   7.308
 3146TIP3    H232892   5.181   6.559   7.292
 3147TIP3   OH232893   4.371   7.067   6.887
 3147TIP3    H132894   4.415   7.142   6.841
 3147TIP3    H232895   4.290   7.057   6.835
 3148TIP3   OH232896   4.016   6.578   6.388
 3148TIP3    H132897   4.042   6.488   6.413
 3148TIP3    H232898   3.918   6.574   6.386
 3149TIP3   OH232899   4.530   6.837   6.858
 3149TIP3    H132900   4.469   6.913   6.869
 3149TIP3    H232901   4.481   6.764   6.901
 3150TIP3   OH232902   4.576   7.298   7.530
 3150TIP3    H132903   4.632   7.376   7.518
 3150TIP3    H232904   4.641   7.238   7.569
 3151TIP3   OH232905   4.435   7.325   6.841
 3151TIP3    H132906   4.343   7.345   6.866
 3151TIP3    H232907   4.481   7.405   6.874
 3152TIP3   OH232908   4.898   6.857   7.494
 3152TIP3    H132909   4.870   6.830   7.584
 3152TIP3    H232910   4.971   6.793   7.479
 3153TIP3   OH232911   5.187   7.338   7.740
 3153TIP3    H132912   5.125   7.269   7.709
 3153TIP3    H232913   5.207   7.393   7.661
 3154TIP3   OH232914   5.585   7.401   6.448
 3154TIP3    H132915   5.657   7.453   6.409
 3154TIP3    H232916   5.512   7.436   6.393
 3155TIP3   OH232917   4.053   6.052   7.688
 3155TIP3    H132918   3.990   6.091   7.752
 3155TIP3    H232919   4.039   5.958   7.710
 3156TIP3   OH232920   5.279   6.799   6.670
 3156TIP3    H132921   5.252   6.714   6.710
 3156TIP3    H232922   5.374   6.779   6.662
 3157TIP3   OH232923   3.989   7.193   7.519
 3157TIP3    H132924   4.028   7.105   7.537
 3157TIP3    H232925   4.038   7.248   7.582
 3158TIP3   OH232926   4.560   7.119   6.268
 3158TIP3    H132927   4.546   7.057   6.195
 3158TIP3    H232928   4.490   7.093   6.331
 3159TIP3   OH232929   4.440   7.022   6.491
 3159TIP3    H132930   4.532   7.015   6.521
 3159TIP3    H232931   4.420   7.116   6.513
 3160TIP3   OH232932   4.872   6.035   7.618
 3160TIP3    H132933   4.949   6.041   7.679
 3160TIP3    H232934   4.855   5.940   7.618
 3161TIP3   OH232935   4.968   5.951   6.751
 3161TIP3    H132936   4.977   5.995   6.665
 3161TIP3    H232937   5.015   6.011   6.813
 3162TIP3   OH232938   4.717   7.170   6.565
 3162TIP3    H132939   4.634   7.221   6.568
 3162TIP3    H232940   4.782   7.239   6.548
 3163TIP3   OH232941   4.678   6.164   6.787
 3163TIP3    H132942   4.746   6.232   6.802
 3163TIP3    H232943   4.658   6.130   6.876
 3164TIP3   OH232944   4.768   6.285   7.681
 3164TIP3    H132945   4.802   6.310   7.770
 3164TIP3    H232946   4.801   6.193   7.668
 3165TIP3   OH232947   4.743   5.823   6.842
 3165TIP3    H132948   4.711   5.883   6.913
 3165TIP3    H232949   4.823   5.874   6.813
 3166TIP3   OH232950   4.457   7.283   6.564
 3166TIP3    H132951   4.458   7.366   6.512
 3166TIP3    H232952   4.432   7.313   6.653
 3167TIP3   OH232953   5.363   6.028   7.768
 3167TIP3    H132954   5.265   6.030   7.778
 3167TIP3    H232955   5.372   6.053   7.675
 3168TIP3   OH232956   5.233   6.390   7.145
 3168TIP3    H132957   5.163   6.323   7.156
 3168TIP3    H232958   5.308   6.352   7.196
 3169TIP3   OH232959   5.355   7.373   7.353
 3169TIP3    H132960   5.332   7.427   7.273
 3169TIP3    H232961   5.453   7.375   7.343
 3170TIP3   OH232962   4.091   5.754   7.236
 3170TIP3    H132963   4.081   5.749   7.138
 3170TIP3    H232964   4.060   5.665   7.262
 3171TIP3   OH232965   3.957   7.149   6.828
 3171TIP3    H132966   3.874   7.162   6.875
 3171TIP3    H232967   3.936   7.191   6.742
 3172TIP3   OH232968   3.883   7.418   7.987
 3172TIP3    H132969   3.972   7.410   8.027
 3172TIP3    H232970   3.855   7.326   7.984
 3173TIP3   OH232971   4.400   7.253   8.166
 3173TIP3    H132972   4.489   7.228   8.139
 3173TIP3    H232973   4.354   7.259   8.081
 3174TIP3   OH232974   4.766   7.284   6.297
 3174TIP3    H132975   4.683   7.232   6.302
 3174TIP3    H232976   4.814   7.229   6.235
 3175TIP3   OH232977   4.989   7.164   8.001
 3175TIP3    H132978   4.967   7.074   8.033
 3175TIP3    H232979   5.076   7.178   8.047
 3176TIP3   OH232980   3.849   6.774   8.055
 3176TIP3    H132981   3.810   6.685   8.057
 3176TIP3    H232982   3.809   6.811   7.973
 3177TIP3   OH232983   4.538   6.776   7.966
 3177TIP3    H132984   4.506   6.841   7.899
 3177TIP3    H232985   4.519   6.690   7.921
 3178TIP3   OH232986   5.099   6.780   7.753
 3178TIP3    H132987   5.195   6.799   7.750
 3178TIP3    H232988   5.066   6.871   7.764
 3179TIP3   OH232989   4.006   6.481   8.008
 3179TIP3    H132990   4.089   6.434   8.021
 3179TIP3    H232991   4.011   6.543   8.084
 3180TIP3   OH232992   4.323   6.413   7.682
 3180TIP3    H132993   4.268   6.493   7.689
 3180TIP3    H232994   4.404   6.454   7.643
 3181TIP3   OH232995   4.892   6.672   8.080
 3181TIP3    H132996   4.968   6.632   8.033
 3181TIP3    H232997   4.857   6.597   8.131
 3182TIP3   OH232998   4.452   6.197   7.801
 3182TIP3    H132999   4.471   6.126   7.736
 3182TIP3    H233000   4.420   6.270   7.744
 3183TIP3   OH233001   4.481   5.985   7.612
 3183TIP3    H133002   4.521   6.019   7.529
 3183TIP3    H233003   4.386   5.979   7.587
 3184TIP3   OH233004   4.561   6.554   7.614
 3184TIP3    H133005   4.656   6.558   7.593
 3184TIP3    H233006   4.526   6.632   7.566
 3185TIP3   OH233007   5.005   6.342   8.106
 3185TIP3    H133008   5.012   6.247   8.131
 3185TIP3    H233009   5.088   6.351   8.057
 3186TIP3   OH233010   5.152   6.629   7.986
 3186TIP3    H133011   5.144   6.668   7.896
 3186TIP3    H233012   5.202   6.549   7.964
 3187TIP3   OH233013   4.264   6.245   8.034
 3187TIP3    H133014   4.185   6.198   7.997
 3187TIP3    H233015   4.326   6.239   7.960
 3188TIP3   OH233016   4.549   5.722   7.646
 3188TIP3    H133017   4.517   5.814   7.643
 3188TIP3    H233018   4.478   5.676   7.598
 3189TIP3   OH233019   4.651   6.149   8.035
 3189TIP3    H133020   4.579   6.127   8.099
 3189TIP3    H233021   4.602   6.145   7.952
 3190TIP3   OH233022   4.914   6.091   7.939
 3190TIP3    H133023   4.818   6.074   7.938
 3190TIP3    H233024   4.943   6.019   7.999
 3191TIP3   OH233025   5.012   5.899   8.085
 3191TIP3    H133026   5.057   5.813   8.095
 3191TIP3    H233027   5.045   5.948   8.164
 3192TIP3   OH233028   4.053   6.079   8.012
 3192TIP3    H133029   4.047   5.992   7.969
 3192TIP3    H233030   4.043   6.053   8.108
 3193TIP3   OH233031   4.496   5.628   7.937
 3193TIP3    H133032   4.581   5.580   7.943
 3193TIP3    H233033   4.492   5.632   7.840
 3194TIP3   OH233034   4.538   5.789   8.167
 3194TIP3    H133035   4.526   5.737   8.085
 3194TIP3    H233036   4.545   5.879   8.131
 3195TIP3   OH233037   4.524   7.508   6.425
 3195TIP3    H133038   4.613   7.525   6.460
 3195TIP3    H233039   4.525   7.556   6.342
 3196TIP3   OH233040   3.815   7.518   6.878
 3196TIP3    H133041   3.790   7.464   6.799
 3196TIP3    H233042   3.826   7.446   6.943
 3197TIP3   OH233043   3.877   7.345   7.081
 3197TIP3    H133044   3.790   7.303   7.095
 3197TIP3    H233045   3.901   7.366   7.174
 3198TIP3   OH233046   5.623   7.420   7.336
 3198TIP3    H133047   5.652   7.414   7.428
 3198TIP3    H233048   5.653   7.509   7.313
 3199TIP3   OH233049   5.547   7.327   7.649
 3199TIP3    H133050   5.522   7.251   7.593
 3199TIP3    H233051   5.591   7.277   7.721
 3200TIP3   OH233052   5.360   6.973   8.133
 3200TIP3    H133053   5.343   6.902   8.197
 3200TIP3    H233054   5.429   7.026   8.179
 3201TIP3   OH233055   5.535   6.710   6.713
 3201TIP3    H133056   5.620   6.749   6.682
 3201TIP3    H233057   5.540   6.716   6.809
 3202TIP3   OH233058   5.559   6.836   7.275
 3202TIP3    H133059   5.624   6.765   7.294
 3202TIP3    H233060   5.614   6.916   7.257
 3203TIP3   OH233061   5.405   7.109   7.565
 3203TIP3    H133062   5.349   7.182   7.594
 3203TIP3    H233063   5.359   7.084   7.482
 3204TIP3   OH233064   5.381   6.385   6.920
 3204TIP3    H133065   5.325   6.308   6.932
 3204TIP3    H233066   5.359   6.431   7.004
 3205TIP3   OH233067   3.843   6.652   7.327
 3205TIP3    H133068   3.839   6.620   7.234
 3205TIP3    H233069   3.935   6.629   7.351
 3206TIP3   OH233070   5.501   6.624   7.946
 3206TIP3    H133071   5.427   6.591   7.889
 3206TIP3    H233072   5.533   6.698   7.895
 3207TIP3   OH233073   5.559   6.350   7.887
 3207TIP3    H133074   5.555   6.443   7.917
 3207TIP3    H233075   5.628   6.309   7.946
 3208TIP3   OH233076   5.381   5.981   6.351
 3208TIP3    H133077   5.459   5.951   6.302
 3208TIP3    H233078   5.317   6.010   6.284
 3209TIP3   OH233079   5.274   6.182   6.741
 3209TIP3    H133080   5.308   6.090   6.750
 3209TIP3    H233081   5.350   6.230   6.776
 3210TIP3   OH233082   5.419   6.254   7.285
 3210TIP3    H133083   5.515   6.260   7.306
 3210TIP3    H233084   5.386   6.273   7.375
 3211TIP3   OH233085   5.397   6.322   7.537
 3211TIP3    H133086   5.344   6.360   7.611
 3211TIP3    H233087   5.451   6.402   7.525
 3212TIP3   OH233088   3.831   6.163   7.895
 3212TIP3    H133089   3.909   6.146   7.952
 3212TIP3    H233090   3.774   6.084   7.916
 3213TIP3   OH233091   5.606   5.762   8.074
 3213TIP3    H133092   5.653   5.687   8.031
 3213TIP3    H233093   5.617   5.831   8.005
 3214TIP3   OH233094   5.430   5.966   6.774
 3214TIP3    H133095   5.452   5.918   6.856
 3214TIP3    H233096   5.374   5.900   6.731
 3215TIP3   OH233097   3.944   5.994   7.268
 3215TIP3    H133098   3.980   5.904   7.258
 3215TIP3    H233099   4.023   6.050   7.257
 3216TIP3   OH233100   3.786   6.302   7.315
 3216TIP3    H133101   3.843   6.271   7.243
 3216TIP3    H233102   3.834   6.382   7.341
 3217TIP3   OH233103   5.572   5.974   7.926
 3217TIP3    H133104   5.498   5.992   7.988
 3217TIP3    H233105   5.520   5.950   7.845
 3218TIP3   OH233106   3.792   5.935   6.721
 3218TIP3    H133107   3.696   5.938   6.734
 3218TIP3    H233108   3.807   6.014   6.669
 3219TIP3   OH233109   5.240   7.417   6.895
 3219TIP3    H133110   5.329   7.397   6.859
 3219TIP3    H233111   5.261   7.484   6.962
 3220TIP3   OH233112   3.791   5.777   7.559
 3220TIP3    H133113   3.720   5.742   7.616
 3220TIP3    H233114   3.745   5.844   7.506
 3221TIP3   OH233115   4.022   7.083   7.970
 3221TIP3    H133116   3.943   7.088   7.914
 3221TIP3    H233117   3.983   7.099   8.058
 3222TIP3   OH233118   4.314   7.222   7.619
 3222TIP3    H133119   4.296   7.318   7.605
 3222TIP3    H233120   4.412   7.225   7.622
 3223TIP3   OH233121   4.748   7.341   7.904
 3223TIP3    H133122   4.750   7.301   7.993
 3223TIP3    H233123   4.844   7.355   7.886
 3224TIP3   OH233124   5.001   7.518   7.842
 3224TIP3    H133125   5.074   7.467   7.804
 3224TIP3    H233126   5.021   7.509   7.937
 3225TIP3   OH233127   5.466   5.709   7.741
 3225TIP3    H133128   5.387   5.742   7.694
 3225TIP3    H233129   5.487   5.631   7.687
 3226TIP3   OH233130   4.024   7.534   7.590
 3226TIP3    H133131   3.941   7.561   7.545
 3226TIP3    H233132   4.010   7.571   7.679
 3227TIP3   OH233133   4.273   7.467   7.534
 3227TIP3    H133134   4.181   7.499   7.556
 3227TIP3    H233135   4.286   7.502   7.444
 3228TIP3   OH233136   4.769   7.480   7.424
 3228TIP3    H133137   4.708   7.495   7.348
 3228TIP3    H233138   4.771   7.567   7.468
 3229TIP3   OH233139   4.951   7.331   7.566
 3229TIP3    H133140   4.883   7.385   7.519
 3229TIP3    H233141   5.027   7.389   7.550
 3230TIP3   OH233142   5.227   7.518   7.535
 3230TIP3    H133143   5.215   7.598   7.483
 3230TIP3    H233144   5.269   7.461   7.467
 3231TIP3   OH233145   3.998   7.395   7.318
 3231TIP3    H133146   3.956   7.355   7.397
 3231TIP3    H233147   4.077   7.339   7.304
 3232TIP3   OH233148   4.209   7.271   7.232
 3232TIP3    H133149   4.171   7.182   7.249
 3232TIP3    H233150   4.280   7.272   7.299
 3233TIP3   OH233151   4.466   7.274   7.281
 3233TIP3    H133152   4.511   7.190   7.300
 3233TIP3    H233153   4.474   7.316   7.370
 3234TIP3   OH233154   4.846   5.869   7.179
 3234TIP3    H133155   4.758   5.840   7.208
 3234TIP3    H233156   4.861   5.811   7.104
 3235TIP3   OH233157   5.337   5.672   7.156
 3235TIP3    H133158   5.392   5.735   7.103
 3235TIP3    H233159   5.246   5.695   7.125
 3236TIP3   OH233160   5.502   5.802   6.983
 3236TIP3    H133161   5.557   5.732   6.942
 3236TIP3    H233162   5.569   5.869   7.010
 3237TIP3   OH233163   4.037   5.744   6.968
 3237TIP3    H133164   3.945   5.743   6.940
 3237TIP3    H233165   4.069   5.656   6.939
 3238TIP3   OH233166   3.919   5.761   6.499
 3238TIP3    H133167   3.979   5.828   6.538
 3238TIP3    H233168   3.870   5.731   6.577
 3239TIP3   OH233169   4.468   5.677   6.934
 3239TIP3    H133170   4.533   5.732   6.889
 3239TIP3    H233171   4.501   5.678   7.025
 3240TIP3   OH233172   5.080   5.723   7.076
 3240TIP3    H133173   5.053   5.740   6.985
 3240TIP3    H233174   5.025   5.644   7.099
 3241TIP3   OH233175   5.159   5.742   6.661
 3241TIP3    H133176   5.080   5.792   6.688
 3241TIP3    H233177   5.139   5.654   6.703
 3242TIP3   OH233178   3.894   7.309   6.622
 3242TIP3    H133179   3.813   7.328   6.571
 3242TIP3    H233180   3.927   7.402   6.629
 3243TIP3   OH233181   4.598   5.954   6.636
 3243TIP3    H133182   4.649   5.887   6.683
 3243TIP3    H233183   4.636   6.038   6.669
 3244TIP3   OH233184   4.831   7.502   6.430
 3244TIP3    H133185   4.920   7.462   6.433
 3244TIP3    H233186   4.784   7.424   6.390
 3245TIP3   OH233187   5.467   7.377   6.759
 3245TIP3    H133188   5.449   7.293   6.711
 3245TIP3    H233189   5.459   7.442   6.687
 3246TIP3   OH233190   4.009   5.800   7.883
 3246TIP3    H133191   3.960   5.716   7.897
 3246TIP3    H233192   4.089   5.786   7.940
 3247TIP3   OH233193   4.211   5.746   8.055
 3247TIP3    H133194   4.290   5.697   8.028
 3247TIP3    H233195   4.172   5.681   8.119
 3248TIP3   OH233196   4.105   7.504   6.367
 3248TIP3    H133197   4.070   7.444   6.434
 3248TIP3    H233198   4.081   7.461   6.283
 3249TIP3   OH233199   5.072   5.641   8.103
 3249TIP3    H133200   5.095   5.623   8.198
 3249TIP3    H233201   5.163   5.644   8.065
 3250TIP3   OH233202   5.373   7.279   7.936
 3250TIP3    H133203   5.292   7.261   7.884
 3250TIP3    H233204   5.374   7.377   7.934
 3251TIP3   OH233205   6.919   6.667   6.977
 3251TIP3    H133206   6.868   6.749   6.963
 3251TIP3    H233207   6.856   6.595   6.967
 3252TIP3   OH233208   6.716   6.570   7.261
 3252TIP3    H133209   6.742   6.521   7.343
 3252TIP3    H233210   6.671   6.503   7.206
 3253TIP3   OH233211   5.959   6.536   7.402
 3253TIP3    H133212   5.952   6.469   7.472
 3253TIP3    H233213   6.020   6.599   7.445
 3254TIP3   OH233214   7.095   6.853   7.139
 3254TIP3    H133215   7.078   6.771   7.187
 3254TIP3    H233216   7.064   6.922   7.201
 3255TIP3   OH233217   6.033   7.010   7.246
 3255TIP3    H133218   6.006   6.917   7.229
 3255TIP3    H233219   6.127   6.990   7.251
 3256TIP3   OH233220   5.796   6.582   7.044
 3256TIP3    H133221   5.836   6.496   7.070
 3256TIP3    H233222   5.871   6.642   7.041
 3257TIP3   OH233223   6.805   7.372   7.175
 3257TIP3    H133224   6.866   7.328   7.110
 3257TIP3    H233225   6.865   7.374   7.250
 3258TIP3   OH233226   6.547   6.809   7.350
 3258TIP3    H133227   6.595   6.746   7.292
 3258TIP3    H233228   6.622   6.841   7.405
 3259TIP3   OH233229   7.419   6.007   7.371
 3259TIP3    H133230   7.427   6.064   7.450
 3259TIP3    H233231   7.484   6.050   7.312
 3260TIP3   OH233232   6.904   6.277   7.394
 3260TIP3    H133233   6.934   6.184   7.403
 3260TIP3    H233234   6.862   6.271   7.306
 3261TIP3   OH233235   6.218   6.065   7.054
 3261TIP3    H133236   6.240   6.143   7.000
 3261TIP3    H233237   6.168   6.010   6.990
 3262TIP3   OH233238   6.977   6.141   6.936
 3262TIP3    H133239   7.005   6.051   6.964
 3262TIP3    H233240   7.052   6.169   6.881
 3263TIP3   OH233241   5.866   6.338   7.142
 3263TIP3    H133242   5.916   6.305   7.219
 3263TIP3    H233243   5.897   6.280   7.069
 3264TIP3   OH233244   6.346   6.487   7.098
 3264TIP3    H133245   6.432   6.448   7.122
 3264TIP3    H233246   6.313   6.417   7.037
 3265TIP3   OH233247   7.440   6.104   7.619
 3265TIP3    H133248   7.384   6.185   7.620
 3265TIP3    H233249   7.508   6.130   7.683
 3266TIP3   OH233250   6.121   5.963   7.473
 3266TIP3    H133251   6.069   6.008   7.403
 3266TIP3    H233252   6.061   5.970   7.550
 3267TIP3   OH233253   6.778   6.883   6.801
 3267TIP3    H133254   6.833   6.912   6.725
 3267TIP3    H233255   6.768   6.967   6.848
 3268TIP3   OH233256   6.310   6.736   7.462
 3268TIP3    H133257   6.252   6.813   7.483
 3268TIP3    H233258   6.384   6.779   7.414
 3269TIP3   OH233259   7.146   6.054   7.138
 3269TIP3    H133260   7.113   5.976   7.184
 3269TIP3    H233261   7.241   6.045   7.147
 3270TIP3   OH233262   6.065   6.152   7.269
 3270TIP3    H133263   6.118   6.221   7.315
 3270TIP3    H233264   6.129   6.124   7.198
 3271TIP3   OH233265   6.174   6.954   7.563
 3271TIP3    H133266   6.167   7.049   7.544
 3271TIP3    H233267   6.090   6.937   7.613
 3272TIP3   OH233268   5.777   6.869   6.651
 3272TIP3    H133269   5.766   6.916   6.565
 3272TIP3    H233270   5.787   6.943   6.712
 3273TIP3   OH233271   7.105   7.098   7.360
 3273TIP3    H133272   7.011   7.111   7.340
 3273TIP3    H233273   7.148   7.157   7.296
 3274TIP3   OH233274   7.154   5.927   7.459
 3274TIP3    H133275   7.079   5.970   7.414
 3274TIP3    H233276   7.230   5.950   7.402
 3275TIP3   OH233277   6.436   5.677   7.238
 3275TIP3    H133278   6.394   5.590   7.224
 3275TIP3    H233279   6.355   5.733   7.252
 3276TIP3   OH233280   7.001   7.265   7.019
 3276TIP3    H133281   7.006   7.179   6.970
 3276TIP3    H233282   7.069   7.312   6.966
 3277TIP3   OH233283   7.066   7.018   6.882
 3277TIP3    H133284   7.083   6.964   6.802
 3277TIP3    H233285   7.106   6.958   6.948
 3278TIP3   OH233286   7.232   6.896   7.717
 3278TIP3    H133287   7.236   6.818   7.658
 3278TIP3    H233288   7.256   6.967   7.654
 3279TIP3   OH233289   6.709   6.592   6.662
 3279TIP3    H133290   6.660   6.644   6.596
 3279TIP3    H233291   6.793   6.569   6.613
 3280TIP3   OH233292   7.418   6.535   7.516
 3280TIP3    H133293   7.351   6.605   7.497
 3280TIP3    H233294   7.484   6.555   7.444
 3281TIP3   OH233295   7.074   6.540   6.779
 3281TIP3    H133296   7.031   6.605   6.838
 3281TIP3    H233297   7.145   6.507   6.838
 3282TIP3   OH233298   7.037   6.414   7.708
 3282TIP3    H133299   7.024   6.508   7.728
 3282TIP3    H233300   6.976   6.408   7.633
 3283TIP3   OH233301   6.200   6.661   6.953
 3283TIP3    H133302   6.190   6.618   6.866
 3283TIP3    H233303   6.254   6.595   7.001
 3284TIP3   OH233304   6.369   6.999   7.231
 3284TIP3    H133305   6.381   7.005   7.135
 3284TIP3    H233306   6.436   6.934   7.260
 3285TIP3   OH233307   6.232   6.520   7.337
 3285TIP3    H133308   6.271   6.530   7.247
 3285TIP3    H233309   6.264   6.602   7.381
 3286TIP3   OH233310   6.806   7.126   7.384
 3286TIP3    H133311   6.805   7.189   7.460
 3286TIP3    H233312   6.807   7.040   7.432
 3287TIP3   OH233313   6.330   6.949   7.781
 3287TIP3    H133314   6.273   7.012   7.831
 3287TIP3    H233315   6.281   6.942   7.695
 3288TIP3   OH233316   6.941   6.535   6.549
 3288TIP3    H133317   6.997   6.541   6.630
 3288TIP3    H233318   7.003   6.568   6.480
 3289TIP3   OH233319   6.040   6.603   7.681
 3289TIP3    H133320   6.044   6.689   7.725
 3289TIP3    H233321   5.977   6.558   7.742
 3290TIP3   OH233322   6.674   7.210   6.958
 3290TIP3    H133323   6.771   7.209   6.954
 3290TIP3    H233324   6.653   7.255   6.874
 3291TIP3   OH233325   6.165   7.153   7.881
 3291TIP3    H133326   6.154   7.175   7.786
 3291TIP3    H233327   6.078   7.114   7.903
 3292TIP3   OH233328   7.308   5.726   6.536
 3292TIP3    H133329   7.210   5.735   6.527
 3292TIP3    H233330   7.341   5.776   6.459
 3293TIP3   OH233331   6.114   6.562   6.700
 3293TIP3    H133332   6.034   6.618   6.702
 3293TIP3    H233333   6.079   6.473   6.718
 3294TIP3   OH233334   5.741   6.800   7.643
 3294TIP3    H133335   5.676   6.782   7.572
 3294TIP3    H233336   5.773   6.708   7.657
 3295TIP3   OH233337   5.719   7.066   7.261
 3295TIP3    H133338   5.815   7.052   7.251
 3295TIP3    H233339   5.717   7.133   7.331
 3296TIP3   OH233340   7.470   7.152   7.876
 3296TIP3    H133341   7.465   7.055   7.880
 3296TIP3    H233342   7.386   7.174   7.923
 3297TIP3   OH233343   6.593   7.091   7.733
 3297TIP3    H133344   6.600   7.174   7.784
 3297TIP3    H233345   6.507   7.054   7.759
 3298TIP3   OH233346   6.632   7.457   6.709
 3298TIP3    H133347   6.616   7.476   6.614
 3298TIP3    H233348   6.682   7.535   6.736
 3299TIP3   OH233349   6.048   7.334   6.924
 3299TIP3    H133350   6.076   7.330   7.018
 3299TIP3    H233351   5.978   7.266   6.922
 3300TIP3   OH233352   6.893   7.357   6.708
 3300TIP3    H133353   6.797   7.354   6.690
 3300TIP3    H233354   6.928   7.283   6.654
 3301TIP3   OH233355   7.203   6.304   7.918
 3301TIP3    H133356   7.144   6.331   7.845
 3301TIP3    H233357   7.229   6.212   7.892
 3302TIP3   OH233358   5.961   6.933   7.717
 3302TIP3    H133359   5.961   6.898   7.810
 3302TIP3    H233360   5.875   6.901   7.684
 3303TIP3   OH233361   6.220   5.804   7.301
 3303TIP3    H133362   6.131   5.807   7.262
 3303TIP3    H233363   6.204   5.859   7.382
 3304TIP3   OH233364   6.715   5.755   7.615
 3304TIP3    H133365   6.748   5.709   7.695
 3304TIP3    H233366   6.619   5.757   7.633
 3305TIP3   OH233367   7.012   6.137   7.706
 3305TIP3    H133368   6.951   6.121   7.781
 3305TIP3    H233369   7.031   6.232   7.717
 3306TIP3   OH233370   7.108   6.630   6.370
 3306TIP3    H133371   7.062   6.716   6.363
 3306TIP3    H233372   7.194   6.650   6.329
 3307TIP3   OH233373   6.596   6.060   6.447
 3307TIP3    H133374   6.607   5.996   6.518
 3307TIP3    H233375   6.610   6.009   6.367
 3308TIP3   OH233376   6.237   6.275   7.435
 3308TIP3    H133377   6.167   6.281   7.504
 3308TIP3    H233378   6.233   6.368   7.399
 3309TIP3   OH233379   6.222   6.300   6.917
 3309TIP3    H133380   6.124   6.291   6.913
 3309TIP3    H233381   6.243   6.277   6.824
 3310TIP3   OH233382   6.815   6.408   6.844
 3310TIP3    H133383   6.765   6.452   6.772
 3310TIP3    H233384   6.871   6.347   6.794
 3311TIP3   OH233385   6.662   6.387   7.933
 3311TIP3    H133386   6.626   6.300   7.958
 3311TIP3    H233387   6.743   6.389   7.985
 3312TIP3   OH233388   6.841   6.310   7.101
 3312TIP3    H133389   6.825   6.363   7.021
 3312TIP3    H233390   6.884   6.235   7.055
 3313TIP3   OH233391   5.979   6.291   7.557
 3313TIP3    H133392   6.006   6.313   7.647
 3313TIP3    H233393   5.950   6.198   7.567
 3314TIP3   OH233394   5.683   5.997   7.010
 3314TIP3    H133395   5.751   6.000   7.081
 3314TIP3    H233396   5.731   5.989   6.927
 3315TIP3   OH233397   5.757   6.109   6.542
 3315TIP3    H133398   5.760   6.046   6.468
 3315TIP3    H233399   5.750   6.191   6.494
 3316TIP3   OH233400   6.793   6.484   7.519
 3316TIP3    H133401   6.850   6.418   7.475
 3316TIP3    H233402   6.738   6.424   7.576
 3317TIP3   OH233403   6.518   6.037   7.042
 3317TIP3    H133404   6.427   6.047   7.075
 3317TIP3    H233405   6.562   5.988   7.115
 3318TIP3   OH233406   5.963   6.209   6.902
 3318TIP3    H133407   5.884   6.183   6.853
 3318TIP3    H233408   6.014   6.125   6.897
 3319TIP3   OH233409   6.241   6.220   6.662
 3319TIP3    H133410   6.335   6.215   6.686
 3319TIP3    H233411   6.247   6.257   6.572
 3320TIP3   OH233412   6.922   5.998   7.336
 3320TIP3    H133413   6.847   5.967   7.389
 3320TIP3    H233414   6.911   5.939   7.259
 3321TIP3   OH233415   7.197   7.523   7.977
 3321TIP3    H133416   7.228   7.557   7.890
 3321TIP3    H233417   7.273   7.545   8.035
 3322TIP3   OH233418   5.992   6.762   7.936
 3322TIP3    H133419   6.063   6.788   7.999
 3322TIP3    H233420   5.915   6.761   7.995
 3323TIP3   OH233421   6.575   6.354   7.157
 3323TIP3    H133422   6.661   6.308   7.142
 3323TIP3    H233423   6.545   6.314   7.239
 3324TIP3   OH233424   6.054   5.962   6.875
 3324TIP3    H133425   6.012   5.881   6.913
 3324TIP3    H233426   6.108   5.925   6.803
 3325TIP3   OH233427   6.485   6.152   7.428
 3325TIP3    H133428   6.402   6.204   7.429
 3325TIP3    H233429   6.539   6.197   7.495
 3326TIP3   OH233430   6.497   6.759   6.604
 3326TIP3    H133431   6.434   6.692   6.568
 3326TIP3    H233432   6.459   6.843   6.572
 3327TIP3   OH233433   7.250   6.741   7.498
 3327TIP3    H133434   7.304   6.801   7.441
 3327TIP3    H233435   7.176   6.717   7.438
 3328TIP3   OH233436   6.898   6.068   6.442
 3328TIP3    H133437   6.836   6.124   6.393
 3328TIP3    H233438   6.963   6.135   6.470
 3329TIP3   OH233439   6.696   6.827   7.774
 3329TIP3    H133440   6.639   6.775   7.831
 3329TIP3    H233441   6.657   6.916   7.783
 3330TIP3   OH233442   7.049   6.277   6.541
 3330TIP3    H133443   7.083   6.260   6.631
 3330TIP3    H233444   7.003   6.363   6.551
 3331TIP3   OH233445   6.052   6.740   7.209
 3331TIP3    H133446   6.098   6.721   7.125
 3331TIP3    H233447   6.048   6.653   7.251
 3332TIP3   OH233448   5.756   6.535   7.703
 3332TIP3    H133449   5.734   6.484   7.782
 3332TIP3    H233450   5.687   6.502   7.641
 3333TIP3   OH233451   6.416   6.509   7.905
 3333TIP3    H133452   6.361   6.456   7.845
 3333TIP3    H233453   6.503   6.466   7.891
 3334TIP3   OH233454   6.923   7.036   7.758
 3334TIP3    H133455   6.830   7.058   7.742
 3334TIP3    H233456   6.940   7.083   7.841
 3335TIP3   OH233457   7.418   6.316   6.569
 3335TIP3    H133458   7.409   6.238   6.513
 3335TIP3    H233459   7.467   6.376   6.509
 3336TIP3   OH233460   7.464   6.873   7.850
 3336TIP3    H133461   7.374   6.890   7.813
 3336TIP3    H233462   7.517   6.869   7.767
 3337TIP3   OH233463   7.047   6.624   7.335
 3337TIP3    H133464   6.953   6.632   7.311
 3337TIP3    H233465   7.073   6.553   7.272
 3338TIP3   OH233466   6.252   7.063   6.965
 3338TIP3    H133467   6.305   7.142   6.943
 3338TIP3    H233468   6.173   7.078   6.911
 3339TIP3   OH233469   6.417   6.857   6.879
 3339TIP3    H133470   6.360   6.936   6.872
 3339TIP3    H233471   6.359   6.803   6.937
 3340TIP3   OH233472   6.467   7.299   7.547
 3340TIP3    H133473   6.465   7.389   7.589
 3340TIP3    H233474   6.544   7.257   7.590
 3341TIP3   OH233475   6.311   7.319   6.839
 3341TIP3    H133476   6.218   7.344   6.859
 3341TIP3    H233477   6.363   7.395   6.871
 3342TIP3   OH233478   6.760   6.867   7.507
 3342TIP3    H133479   6.738   6.855   7.602
 3342TIP3    H233480   6.812   6.787   7.490
 3343TIP3   OH233481   7.053   7.305   7.742
 3343TIP3    H133482   6.986   7.247   7.701
 3343TIP3    H233483   7.074   7.370   7.671
 3344TIP3   OH233484   5.947   6.041   7.670
 3344TIP3    H133485   5.871   6.085   7.711
 3344TIP3    H233486   5.947   5.960   7.723
 3345TIP3   OH233487   7.111   6.806   6.703
 3345TIP3    H133488   7.100   6.710   6.693
 3345TIP3    H233489   7.179   6.823   6.636
 3346TIP3   OH233490   5.883   7.195   7.522
 3346TIP3    H133491   5.943   7.123   7.543
 3346TIP3    H233492   5.918   7.270   7.574
 3347TIP3   OH233493   6.483   6.967   6.261
 3347TIP3    H133494   6.547   6.962   6.190
 3347TIP3    H233495   6.518   7.040   6.314
 3348TIP3   OH233496   5.976   6.756   6.499
 3348TIP3    H133497   5.885   6.771   6.531
 3348TIP3    H233498   6.026   6.801   6.568
 3349TIP3   OH233499   6.762   6.029   7.624
 3349TIP3    H133500   6.859   6.031   7.638
 3349TIP3    H233501   6.744   5.933   7.631
 3350TIP3   OH233502   6.797   6.001   6.718
 3350TIP3    H133503   6.843   6.004   6.631
 3350TIP3    H233504   6.861   5.948   6.771
 3351TIP3   OH233505   6.593   7.186   6.535
 3351TIP3    H133506   6.511   7.231   6.511
 3351TIP3    H233507   6.662   7.247   6.508
 3352TIP3   OH233508   6.557   6.198   6.818
 3352TIP3    H133509   6.646   6.176   6.788
 3352TIP3    H233510   6.542   6.132   6.890
 3353TIP3   OH233511   6.673   6.280   7.663
 3353TIP3    H133512   6.679   6.302   7.758
 3353TIP3    H233513   6.714   6.190   7.655
 3354TIP3   OH233514   6.642   5.840   6.879
 3354TIP3    H133515   6.605   5.902   6.944
 3354TIP3    H233516   6.722   5.888   6.849
 3355TIP3   OH233517   6.329   7.328   6.517
 3355TIP3    H133518   6.396   7.397   6.530
 3355TIP3    H233519   6.308   7.302   6.609
 3356TIP3   OH233520   6.218   5.949   6.571
 3356TIP3    H133521   6.213   6.047   6.574
 3356TIP3    H233522   6.308   5.936   6.608
 3357TIP3   OH233523   7.253   6.032   7.798
 3357TIP3    H133524   7.162   6.020   7.768
 3357TIP3    H233525   7.301   6.039   7.713
 3358TIP3   OH233526   7.094   6.421   7.164
 3358TIP3    H133527   7.016   6.366   7.175
 3358TIP3    H233528   7.155   6.374   7.226
 3359TIP3   OH233529   7.213   7.375   7.356
 3359TIP3    H133530   7.207   7.425   7.271
 3359TIP3    H233531   7.309   7.355   7.359
 3360TIP3   OH233532   5.957   5.765   7.256
 3360TIP3    H133533   5.956   5.758   7.159
 3360TIP3    H233534   5.934   5.673   7.281
 3361TIP3   OH233535   5.854   7.147   6.852
 3361TIP3    H133536   5.780   7.188   6.899
 3361TIP3    H233537   5.839   7.185   6.762
 3362TIP3   OH233538   5.744   7.401   7.957
 3362TIP3    H133539   5.829   7.372   7.994
 3362TIP3    H233540   5.699   7.314   7.934
 3363TIP3   OH233541   6.287   7.236   8.145
 3363TIP3    H133542   6.367   7.180   8.155
 3363TIP3    H233543   6.267   7.222   8.051
 3364TIP3   OH233544   6.874   7.181   8.005
 3364TIP3    H133545   6.861   7.091   8.042
 3364TIP3    H233546   6.957   7.202   8.054
 3365TIP3   OH233547   5.726   6.810   8.062
 3365TIP3    H133548   5.708   6.714   8.080
 3365TIP3    H233549   5.689   6.825   7.973
 3366TIP3   OH233550   6.440   6.769   7.967
 3366TIP3    H133551   6.399   6.825   7.898
 3366TIP3    H233552   6.429   6.677   7.932
 3367TIP3   OH233553   6.997   6.770   7.753
 3367TIP3    H133554   7.073   6.831   7.750
 3367TIP3    H233555   6.926   6.837   7.757
 3368TIP3   OH233556   5.939   6.446   7.982
 3368TIP3    H133557   5.942   6.377   8.051
 3368TIP3    H233558   5.891   6.516   8.030
 3369TIP3   OH233559   6.313   6.579   6.506
 3369TIP3    H133560   6.246   6.574   6.577
 3369TIP3    H233561   6.291   6.500   6.454
 3370TIP3   OH233562   6.239   6.417   7.684
 3370TIP3    H133563   6.177   6.492   7.671
 3370TIP3    H233564   6.317   6.454   7.636
 3371TIP3   OH233565   6.762   6.673   8.088
 3371TIP3    H133566   6.831   6.632   8.032
 3371TIP3    H233567   6.729   6.598   8.141
 3372TIP3   OH233568   7.371   6.709   6.255
 3372TIP3    H133569   7.432   6.698   6.179
 3372TIP3    H233570   7.400   6.795   6.290
 3373TIP3   OH233571   6.349   6.194   7.799
 3373TIP3    H133572   6.342   6.122   7.733
 3373TIP3    H233573   6.325   6.272   7.745
 3374TIP3   OH233574   6.360   5.991   7.599
 3374TIP3    H133575   6.419   6.030   7.530
 3374TIP3    H233576   6.275   5.989   7.551
 3375TIP3   OH233577   6.464   6.564   7.608
 3375TIP3    H133578   6.547   6.597   7.572
 3375TIP3    H233579   6.400   6.628   7.571
 3376TIP3   OH233580   6.907   6.317   8.130
 3376TIP3    H133581   6.896   6.220   8.134
 3376TIP3    H233582   7.000   6.326   8.103
 3377TIP3   OH233583   7.046   6.629   7.978
 3377TIP3    H133584   7.017   6.681   7.900
 3377TIP3    H233585   7.134   6.597   7.949
 3378TIP3   OH233586   6.182   6.231   8.022
 3378TIP3    H133587   6.095   6.194   7.995
 3378TIP3    H233588   6.234   6.221   7.939
 3379TIP3   OH233589   6.440   5.730   7.610
 3379TIP3    H133590   6.406   5.821   7.627
 3379TIP3    H233591   6.359   5.688   7.578
 3380TIP3   OH233592   6.550   6.147   8.026
 3380TIP3    H133593   6.492   6.138   8.103
 3380TIP3    H233594   6.487   6.139   7.953
 3381TIP3   OH233595   6.822   6.099   7.919
 3381TIP3    H133596   6.725   6.100   7.924
 3381TIP3    H233597   6.839   6.029   7.986
 3382TIP3   OH233598   6.888   5.919   8.097
 3382TIP3    H133599   6.931   5.831   8.103
 3382TIP3    H233600   6.919   5.965   8.177
 3383TIP3   OH233601   5.953   6.064   8.010
 3383TIP3    H133602   5.930   5.979   7.966
 3383TIP3    H233603   5.934   6.043   8.105
 3384TIP3   OH233604   6.386   5.676   7.873
 3384TIP3    H133605   6.470   5.631   7.889
 3384TIP3    H233606   6.389   5.682   7.776
 3385TIP3   OH233607   6.430   5.790   8.145
 3385TIP3    H133608   6.401   5.753   8.060
 3385TIP3    H233609   6.403   5.883   8.135
 3386TIP3   OH233610   5.800   6.995   6.406
 3386TIP3    H133611   5.864   7.061   6.373
 3386TIP3    H233612   5.738   6.991   6.332
 3387TIP3   OH233613   5.677   7.503   6.869
 3387TIP3    H133614   5.621   7.437   6.823
 3387TIP3    H233615   5.704   7.449   6.947
 3388TIP3   OH233616   5.731   7.337   7.076
 3388TIP3    H133617   5.655   7.289   7.112
 3388TIP3    H233618   5.787   7.347   7.156
 3389TIP3   OH233619   7.487   7.379   7.354
 3389TIP3    H133620   7.485   7.406   7.447
 3389TIP3    H233621   7.501   7.468   7.317
 3390TIP3   OH233622   7.430   7.340   7.673
 3390TIP3    H133623   7.400   7.266   7.616
 3390TIP3    H233624   7.453   7.290   7.754
 3391TIP3   OH233625   7.293   6.921   8.136
 3391TIP3    H133626   7.221   6.923   8.202
 3391TIP3    H233627   7.329   7.013   8.147
 3392TIP3   OH233628   7.419   6.739   6.647
 3392TIP3    H133629   7.501   6.787   6.670
 3392TIP3    H233630   7.407   6.679   6.724
 3393TIP3   OH233631   7.463   6.569   6.857
 3393TIP3    H133632   7.379   6.535   6.896
 3393TIP3    H233633   7.520   6.575   6.936
 3394TIP3   OH233634   7.452   6.835   7.356
 3394TIP3    H133635   7.501   6.760   7.318
 3394TIP3    H233636   7.490   6.916   7.317
 3395TIP3   OH233637   7.290   7.119   7.572
 3395TIP3    H133638   7.225   7.167   7.625
 3395TIP3    H233639   7.240   7.102   7.489
 3396TIP3   OH233640   7.498   6.552   6.426
 3396TIP3    H133641   7.459   6.610   6.358
 3396TIP3    H233642   7.493   6.610   6.504
 3397TIP3   OH233643   7.253   6.431   6.954
 3397TIP3    H133644   7.212   6.346   6.932
 3397TIP3    H233645   7.206   6.447   7.040
 3398TIP3   OH233646   5.734   6.636   7.316
 3398TIP3    H133647   5.732   6.624   7.219
 3398TIP3    H233648   5.826   6.603   7.336
 3399TIP3   OH233649   7.330   6.619   7.902
 3399TIP3    H133650   7.392   6.543   7.896
 3399TIP3    H233651   7.385   6.694   7.872
 3400TIP3   OH233652   7.459   6.389   7.902
 3400TIP3    H133653   7.362   6.374   7.908
 3400TIP3    H233654   7.493   6.299   7.924
 3401TIP3   OH233655   7.196   6.218   6.772
 3401TIP3    H133656   7.218   6.130   6.732
 3401TIP3    H233657   7.283   6.263   6.767
 3402TIP3   OH233658   7.237   6.281   7.333
 3402TIP3    H133659   7.322   6.237   7.307
 3402TIP3    H233660   7.240   6.270   7.430
 3403TIP3   OH233661   7.284   6.319   7.609
 3403TIP3    H133662   7.193   6.352   7.626
 3403TIP3    H233663   7.330   6.402   7.584
 3404TIP3   OH233664   5.728   6.199   8.012
 3404TIP3    H133665   5.823   6.174   8.018
 3404TIP3    H233666   5.685   6.112   8.004
 3405TIP3   OH233667   7.455   5.663   8.118
 3405TIP3    H133668   7.524   5.613   8.066
 3405TIP3    H233669   7.459   5.744   8.062
 3406TIP3   OH233670   7.239   5.959   6.733
 3406TIP3    H133671   7.281   5.909   6.807
 3406TIP3    H233672   7.148   5.927   6.749
 3407TIP3   OH233673   5.829   5.998   7.254
 3407TIP3    H133674   5.872   5.911   7.272
 3407TIP3    H233675   5.903   6.060   7.264
 3408TIP3   OH233676   5.678   6.290   7.324
 3408TIP3    H133677   5.732   6.280   7.243
 3408TIP3    H233678   5.708   6.376   7.355
 3409TIP3   OH233679   7.440   5.893   7.970
 3409TIP3    H133680   7.357   5.943   7.987
 3409TIP3    H233681   7.419   5.859   7.880
 3410TIP3   OH233682   5.704   5.924   6.739
 3410TIP3    H133683   5.612   5.945   6.765
 3410TIP3    H233684   5.702   5.957   6.647
 3411TIP3   OH233685   7.214   7.416   6.912
 3411TIP3    H133686   7.298   7.451   6.879
 3411TIP3    H233687   7.223   7.441   7.007
 3412TIP3   OH233688   5.683   5.773   7.557
 3412TIP3    H133689   5.623   5.751   7.630
 3412TIP3    H233690   5.634   5.837   7.503
 3413TIP3   OH233691   5.914   7.056   7.965
 3413TIP3    H133692   5.831   7.056   7.916
 3413TIP3    H233693   5.888   7.102   8.046
 3414TIP3   OH233694   6.211   7.224   7.622
 3414TIP3    H133695   6.195   7.321   7.609
 3414TIP3    H233696   6.307   7.219   7.604
 3415TIP3   OH233697   6.623   7.318   7.885
 3415TIP3    H133698   6.610   7.296   7.979
 3415TIP3    H233699   6.716   7.347   7.887
 3416TIP3   OH233700   6.879   7.511   7.839
 3416TIP3    H133701   6.942   7.443   7.810
 3416TIP3    H233702   6.911   7.525   7.931
 3417TIP3   OH233703   7.342   5.729   7.759
 3417TIP3    H133704   7.269   5.736   7.695
 3417TIP3    H233705   7.370   5.636   7.741
 3418TIP3   OH233706   5.913   7.511   7.612
 3418TIP3    H133707   5.834   7.538   7.558
 3418TIP3    H233708   5.902   7.571   7.688
 3419TIP3   OH233709   6.168   7.473   7.541
 3419TIP3    H133710   6.075   7.489   7.570
 3419TIP3    H233711   6.159   7.493   7.446
 3420TIP3   OH233712   6.649   7.489   7.438
 3420TIP3    H133713   6.560   7.512   7.407
 3420TIP3    H233714   6.669   7.567   7.495
 3421TIP3   OH233715   6.821   7.328   7.556
 3421TIP3    H133716   6.744   7.381   7.527
 3421TIP3    H233717   6.891   7.392   7.536
 3422TIP3   OH233718   7.116   7.514   7.554
 3422TIP3    H133719   7.096   7.586   7.492
 3422TIP3    H233720   7.157   7.451   7.491
 3423TIP3   OH233721   5.910   7.331   7.285
 3423TIP3    H133722   5.890   7.263   7.352
 3423TIP3    H233723   5.999   7.303   7.254
 3424TIP3   OH233724   6.152   7.288   7.164
 3424TIP3    H133725   6.141   7.191   7.161
 3424TIP3    H233726   6.241   7.294   7.207
 3425TIP3   OH233727   6.372   7.259   7.306
 3425TIP3    H133728   6.376   7.160   7.300
 3425TIP3    H233729   6.379   7.275   7.403
 3426TIP3   OH233730   6.629   5.838   7.186
 3426TIP3    H133731   6.555   5.772   7.199
 3426TIP3    H233732   6.692   5.789   7.131
 3427TIP3   OH233733   7.225   5.703   7.171
 3427TIP3    H133734   7.251   5.771   7.104
 3427TIP3    H233735   7.127   5.706   7.164
 3428TIP3   OH233736   7.335   5.834   6.949
 3428TIP3    H133737   7.384   5.749   6.947
 3428TIP3    H233738   7.397   5.889   7.002
 3429TIP3   OH233739   5.948   5.722   6.952
 3429TIP3    H133740   5.855   5.714   6.922
 3429TIP3    H233741   5.977   5.628   6.943
 3430TIP3   OH233742   6.389   5.711   6.937
 3430TIP3    H133743   6.460   5.704   6.871
 3430TIP3    H233744   6.441   5.724   7.018
 3431TIP3   OH233745   6.934   5.714   7.176
 3431TIP3    H133746   6.949   5.755   7.088
 3431TIP3    H233747   6.872   5.643   7.149
 3432TIP3   OH233748   7.040   5.689   6.596
 3432TIP3    H133749   7.030   5.722   6.688
 3432TIP3    H233750   6.993   5.603   6.607
 3433TIP3   OH233751   5.770   7.299   6.643
 3433TIP3    H133752   5.691   7.316   6.588
 3433TIP3    H233753   5.826   7.371   6.610
 3434TIP3   OH233754   6.470   5.966   6.682
 3434TIP3    H133755   6.529   5.907   6.733
 3434TIP3    H233756   6.516   6.052   6.695
 3435TIP3   OH233757   5.906   5.794   7.871
 3435TIP3    H133758   5.850   5.716   7.890
 3435TIP3    H233759   5.979   5.783   7.936
 3436TIP3   OH233760   6.109   5.741   8.063
 3436TIP3    H133761   6.187   5.691   8.036
 3436TIP3    H233762   6.061   5.674   8.115
 3437TIP3   OH233763   6.945   5.658   8.108
 3437TIP3    H133764   6.961   5.625   8.198
 3437TIP3    H233765   7.032   5.637   8.067
 3438TIP3   OH233766   7.245   7.259   7.944
 3438TIP3    H133767   7.160   7.259   7.896
 3438TIP3    H233768   7.252   7.354   7.967
 3439TIP3   OH233769   7.574   6.319   6.818
 3439TIP3    H133770   7.521   6.399   6.835
 3439TIP3    H233771   7.549   6.297   6.726
 3440TIP3   OH233772   7.637   6.580   7.062
 3440TIP3    H133773   7.662   6.486   7.066
 3440TIP3    H233774   7.725   6.622   7.053
 3441TIP3   OH233775   7.615   6.946   6.704
 3441TIP3    H133776   7.609   6.952   6.607
 3441TIP3    H233777   7.542   7.007   6.726
 3442TIP3   OH233778   7.561   6.793   7.617
 3442TIP3    H133779   7.512   6.796   7.533
 3442TIP3    H233780   7.576   6.698   7.632
 3443TIP3   OH233781   7.563   7.071   7.289
 3443TIP3    H133782   7.634   7.082   7.355
 3443TIP3    H233783   7.519   7.157   7.302
 3444TIP3   OH233784   7.527   6.011   7.029
 3444TIP3    H133785   7.619   6.041   7.042
 3444TIP3    H233786   7.509   6.056   6.946
 3445TIP3   OH233787   7.743   6.146   6.548
 3445TIP3    H133788   7.794   6.113   6.471
 3445TIP3    H233789   7.658   6.143   6.502
 3446TIP3   OH233790   7.583   6.537   7.726
 3446TIP3    H133791   7.566   6.475   7.801
 3446TIP3    H233792   7.511   6.512   7.664
 3447TIP3   OH233793   7.609   7.376   7.945
 3447TIP3    H133794   7.707   7.371   7.940
 3447TIP3    H233795   7.580   7.286   7.921
 3448TIP3   OH233796   7.611   6.759   8.042
 3448TIP3    H133797   7.546   6.692   8.066
 3448TIP3    H233798   7.558   6.814   7.978
 3449TIP3   OH233799   7.606   6.920   6.378
 3449TIP3    H133800   7.684   6.979   6.379
 3449TIP3    H233801   7.628   6.870   6.298
 3450TIP3   OH233802   7.608   6.616   7.340
 3450TIP3    H133803   7.606   6.602   7.243
 3450TIP3    H233804   7.695   6.657   7.353
 3451TIP3   OH233805   7.529   6.141   7.951
 3451TIP3    H133806   7.627   6.143   7.947
 3451TIP3    H233807   7.512   6.046   7.961
 3452TIP3   OH233808   7.501   6.253   7.292
 3452TIP3    H133809   7.598   6.247   7.310
 3452TIP3    H233810   7.493   6.350   7.294
 3453TIP3   OH233811   7.519   5.943   6.688
 3453TIP3    H133812   7.422   5.937   6.694
 3453TIP3    H233813   7.529   5.957   6.593
 3454TIP3   OH233814   7.477   5.780   7.530
 3454TIP3    H133815   7.445   5.785   7.622
 3454TIP3    H233816   7.454   5.868   7.495
 3455TIP3   OH233817   0.799   7.552   7.281
 3455TIP3    H133818   0.792   7.466   7.236
 3455TIP3    H233819   0.705   7.571   7.303
 3456TIP3   OH233820   1.654   7.556   6.561
 3456TIP3    H133821   1.570   7.559   6.612
 3456TIP3    H233822   1.656   7.650   6.540
 3457TIP3   OH233823   0.557   7.666   7.330
 3457TIP3    H133824   0.463   7.657   7.301
 3457TIP3    H233825   0.574   7.761   7.314
 3458TIP3   OH233826   1.048   7.608   7.670
 3458TIP3    H133827   1.127   7.578   7.720
 3458TIP3    H233828   0.980   7.548   7.706
 3459TIP3   OH233829   0.306   7.621   7.232
 3459TIP3    H133830   0.317   7.605   7.135
 3459TIP3    H233831   0.271   7.534   7.258
 3460TIP3   OH233832   0.774   7.528   7.653
 3460TIP3    H133833   0.784   7.623   7.634
 3460TIP3    H233834   0.698   7.505   7.596
 3461TIP3   OH233835   0.747   7.534   7.929
 3461TIP3    H133836   0.811   7.470   7.962
 3461TIP3    H233837   0.747   7.513   7.833
 3462TIP3   OH233838   1.772   7.523   8.091
 3462TIP3    H133839   1.852   7.478   8.058
 3462TIP3    H233840   1.807   7.612   8.106
 3463TIP3   OH233841   7.720   7.602   7.584
 3463TIP3    H133842   7.628   7.611   7.611
 3463TIP3    H233843   7.747   7.695   7.576
 3464TIP3   OH233844   1.673   7.577   7.711
 3464TIP3    H133845   1.597   7.575   7.649
 3464TIP3    H233846   1.706   7.484   7.698
 3465TIP3   OH233847   1.557   7.534   7.146
 3465TIP3    H133848   1.620   7.577   7.085
 3465TIP3    H233849   1.492   7.606   7.157
 3466TIP3   OH233850   1.715   7.645   6.964
 3466TIP3    H133851   1.786   7.589   6.924
 3466TIP3    H233852   1.766   7.706   7.019
 3467TIP3   OH233853   0.331   7.570   6.971
 3467TIP3    H133854   0.239   7.575   6.935
 3467TIP3    H233855   0.359   7.483   6.936
 3468TIP3   OH233856   0.216   7.548   6.546
 3468TIP3    H133857   0.237   7.634   6.507
 3468TIP3    H233858   0.123   7.563   6.569
 3469TIP3   OH233859   0.737   7.586   6.925
 3469TIP3    H133860   0.735   7.678   6.894
 3469TIP3    H233861   0.685   7.596   7.006
 3470TIP3   OH233862   1.300   7.581   7.045
 3470TIP3    H133863   1.269   7.543   6.962
 3470TIP3    H233864   1.258   7.516   7.106
 3471TIP3   OH233865   1.416   7.603   6.664
 3471TIP3    H133866   1.341   7.591   6.604
 3471TIP3    H233867   1.395   7.532   6.729
 3472TIP3   OH233868   0.210   7.605   7.851
 3472TIP3    H133869   0.175   7.518   7.881
 3472TIP3    H233870   0.302   7.597   7.885
 3473TIP3   OH233871   0.447   7.568   7.997
 3473TIP3    H133872   0.542   7.546   8.001
 3473TIP3    H233873   0.410   7.502   8.059
 3474TIP3   OH233874   1.305   7.513   8.110
 3474TIP3    H133875   1.320   7.484   8.202
 3474TIP3    H233876   1.397   7.506   8.071
 3475TIP3   OH233877   2.683   7.552   7.276
 3475TIP3    H133878   2.680   7.463   7.235
 3475TIP3    H233879   2.587   7.569   7.288
 3476TIP3   OH233880   3.531   7.533   6.550
 3476TIP3    H133881   3.449   7.552   6.600
 3476TIP3    H233882   3.558   7.627   6.537
 3477TIP3   OH233883   2.434   7.654   7.297
 3477TIP3    H133884   2.340   7.653   7.272
 3477TIP3    H233885   2.452   7.751   7.298
 3478TIP3   OH233886   2.914   7.620   7.666
 3478TIP3    H133887   2.995   7.584   7.708
 3478TIP3    H233888   2.851   7.552   7.696
 3479TIP3   OH233889   2.164   7.600   7.218
 3479TIP3    H133890   2.159   7.571   7.124
 3479TIP3    H233891   2.137   7.518   7.264
 3480TIP3   OH233892   2.639   7.507   7.659
 3480TIP3    H133893   2.664   7.599   7.638
 3480TIP3    H233894   2.551   7.502   7.616
 3481TIP3   OH233895   2.605   7.536   7.925
 3481TIP3    H133896   2.670   7.476   7.964
 3481TIP3    H233897   2.617   7.517   7.829
 3482TIP3   OH233898   3.658   7.542   8.068
 3482TIP3    H133899   3.735   7.488   8.040
 3482TIP3    H233900   3.702   7.628   8.078
 3483TIP3   OH233901   1.893   7.607   7.534
 3483TIP3    H133902   1.829   7.618   7.608
 3483TIP3    H233903   1.920   7.701   7.520
 3484TIP3   OH233904   3.542   7.576   7.729
 3484TIP3    H133905   3.468   7.567   7.667
 3484TIP3    H233906   3.585   7.488   7.720
 3485TIP3   OH233907   3.417   7.544   7.139
 3485TIP3    H133908   3.482   7.567   7.068
 3485TIP3    H233909   3.395   7.637   7.164
 3486TIP3   OH233910   3.585   7.635   6.955
 3486TIP3    H133911   3.667   7.591   6.922
 3486TIP3    H233912   3.620   7.718   6.993
 3487TIP3   OH233913   2.150   7.575   6.939
 3487TIP3    H133914   2.060   7.547   6.911
 3487TIP3    H233915   2.200   7.492   6.921
 3488TIP3   OH233916   2.082   7.600   6.624
 3488TIP3    H133917   2.086   7.673   6.560
 3488TIP3    H233918   2.089   7.645   6.710
 3489TIP3   OH233919   2.568   7.563   6.959
 3489TIP3    H133920   2.576   7.641   6.901
 3489TIP3    H233921   2.563   7.606   7.046
 3490TIP3   OH233922   3.148   7.577   7.016
 3490TIP3    H133923   3.126   7.520   6.941
 3490TIP3    H233924   3.117   7.520   7.089
 3491TIP3   OH233925   3.291   7.611   6.638
 3491TIP3    H133926   3.256   7.609   6.548
 3491TIP3    H233927   3.252   7.529   6.674
 3492TIP3   OH233928   2.091   7.644   7.864
 3492TIP3    H133929   2.031   7.571   7.889
 3492TIP3    H233930   2.176   7.607   7.896
 3493TIP3   OH233931   2.329   7.552   7.978
 3493TIP3    H133932   2.423   7.522   7.974
 3493TIP3    H233933   2.294   7.503   8.056
 3494TIP3   OH233934   3.171   7.532   8.102
 3494TIP3    H133935   3.172   7.471   8.178
 3494TIP3    H233936   3.262   7.517   8.066
 3495TIP3   OH233937   4.572   7.520   7.254
 3495TIP3    H133938   4.557   7.425   7.232
 3495TIP3    H233939   4.483   7.547   7.286
 3496TIP3   OH233940   4.341   7.633   7.332
 3496TIP3    H133941   4.247   7.629   7.302
 3496TIP3    H233942   4.359   7.729   7.330
 3497TIP3   OH233943   4.811   7.608   7.669
 3497TIP3    H133944   4.887   7.566   7.716
 3497TIP3    H233945   4.737   7.556   7.702
 3498TIP3   OH233946   4.103   7.602   7.202
 3498TIP3    H133947   4.079   7.569   7.113
 3498TIP3    H233948   4.054   7.535   7.256
 3499TIP3   OH233949   4.523   7.541   7.667
 3499TIP3    H133950   4.533   7.634   7.638
 3499TIP3    H233951   4.453   7.508   7.606
 3500TIP3   OH233952   4.497   7.492   7.926
 3500TIP3    H133953   4.575   7.437   7.943
 3500TIP3    H233954   4.505   7.503   7.828
 3501TIP3   OH233955   5.557   7.527   8.099
 3501TIP3    H133956   5.614   7.472   8.041
 3501TIP3    H233957   5.590   7.617   8.081
 3502TIP3   OH233958   3.776   7.603   7.532
 3502TIP3    H133959   3.716   7.592   7.608
 3502TIP3    H233960   3.798   7.698   7.541
 3503TIP3   OH233961   5.445   7.572   7.726
 3503TIP3    H133962   5.375   7.568   7.658
 3503TIP3    H233963   5.481   7.481   7.718
 3504TIP3   OH233964   5.325   7.542   7.157
 3504TIP3    H133965   5.392   7.583   7.097
 3504TIP3    H233966   5.244   7.586   7.125
 3505TIP3   OH233967   5.486   7.644   6.987
 3505TIP3    H133968   5.549   7.591   6.933
 3505TIP3    H233969   5.530   7.730   6.995
 3506TIP3   OH233970   4.070   7.564   6.933
 3506TIP3    H133971   3.974   7.560   6.905
 3506TIP3    H233972   4.100   7.487   6.881
 3507TIP3   OH233973   3.954   7.572   6.625
 3507TIP3    H133974   4.002   7.636   6.567
 3507TIP3    H233975   3.864   7.605   6.612
 3508TIP3   OH233976   4.500   7.538   6.986
 3508TIP3    H133977   4.488   7.633   6.970
 3508TIP3    H233978   4.549   7.539   7.071
 3509TIP3   OH233979   5.088   7.581   7.045
 3509TIP3    H133980   5.067   7.561   6.952
 3509TIP3    H233981   5.027   7.520   7.091
 3510TIP3   OH233982   5.132   7.600   6.612
 3510TIP3    H133983   5.155   7.562   6.526
 3510TIP3    H233984   5.119   7.521   6.667
 3511TIP3   OH233985   3.965   7.634   7.860
 3511TIP3    H133986   3.914   7.563   7.905
 3511TIP3    H233987   4.055   7.605   7.884
 3512TIP3   OH233988   4.214   7.505   7.958
 3512TIP3    H133989   4.311   7.490   7.962
 3512TIP3    H233990   4.181   7.469   8.043
 3513TIP3   OH233991   5.083   7.504   8.109
 3513TIP3    H133992   5.112   7.460   8.190
 3513TIP3    H233993   5.168   7.503   8.057
 3514TIP3   OH233994   6.454   7.543   7.263
 3514TIP3    H133995   6.437   7.530   7.167
 3514TIP3    H233996   6.361   7.560   7.293
 3515TIP3   OH233997   6.213   7.647   7.306
 3515TIP3    H133998   6.119   7.636   7.280
 3515TIP3    H233999   6.220   7.745   7.304
 3516TIP3   OH234000   6.694   7.613   7.663
 3516TIP3    H134001   6.769   7.583   7.719
 3516TIP3    H234002   6.621   7.561   7.699
 3517TIP3   OH234003   5.952   7.602   7.229
 3517TIP3    H134004   5.953   7.590   7.131
 3517TIP3    H234005   5.926   7.512   7.258
 3518TIP3   OH234006   6.407   7.533   7.649
 3518TIP3    H134007   6.425   7.626   7.624
 3518TIP3    H234008   6.317   7.521   7.611
 3519TIP3   OH234009   6.379   7.502   7.921
 3519TIP3    H134010   6.460   7.457   7.952
 3519TIP3    H234011   6.389   7.493   7.823
 3520TIP3   OH234012   7.439   7.503   8.105
 3520TIP3    H134013   7.501   7.453   8.047
 3520TIP3    H234014   7.486   7.589   8.110
 3521TIP3   OH234015   5.679   7.608   7.539
 3521TIP3    H134016   5.606   7.612   7.603
 3521TIP3    H234017   5.697   7.703   7.522
 3522TIP3   OH234018   7.318   7.577   7.736
 3522TIP3    H134019   7.251   7.558   7.666
 3522TIP3    H234020   7.367   7.491   7.740
 3523TIP3   OH234021   7.220   7.536   7.145
 3523TIP3    H134022   7.290   7.604   7.144
 3523TIP3    H234023   7.141   7.588   7.125
 3524TIP3   OH234024   7.456   7.650   7.089
 3524TIP3    H134025   7.458   7.658   6.992
 3524TIP3    H234026   7.435   7.743   7.107
 3525TIP3   OH234027   5.937   7.567   6.960
 3525TIP3    H134028   5.855   7.555   6.907
 3525TIP3    H234029   5.985   7.483   6.938
 3526TIP3   OH234030   5.839   7.575   6.553
 3526TIP3    H134031   5.864   7.650   6.497
 3526TIP3    H234032   5.758   7.614   6.590
 3527TIP3   OH234033   6.399   7.545   6.991
 3527TIP3    H134034   6.450   7.585   6.919
 3527TIP3    H234035   6.329   7.612   7.003
 3528TIP3   OH234036   6.964   7.586   7.032
 3528TIP3    H134037   6.958   7.564   6.937
 3528TIP3    H234038   6.917   7.511   7.071
 3529TIP3   OH234039   7.042   7.568   6.646
 3529TIP3    H134040   6.994   7.579   6.563
 3529TIP3    H234041   7.002   7.484   6.679
 3530TIP3   OH234042   5.859   7.643   7.868
 3530TIP3    H134043   5.802   7.564   7.881
 3530TIP3    H234044   5.946   7.607   7.894
 3531TIP3   OH234045   6.112   7.554   7.971
 3531TIP3    H134046   6.206   7.528   7.958
 3531TIP3    H234047   6.088   7.492   8.043
 3532TIP3   OH234048   6.961   7.514   8.098
 3532TIP3    H134049   6.965   7.487   8.191
 3532TIP3    H234050   7.052   7.491   8.067
 3533TIP3   OH234051   7.445   7.616   7.482
 3533TIP3    H134052   7.411   7.619   7.574
 3533TIP3    H234053   7.482   7.707   7.477
 3534TIP3   OH234054   1.044   0.814   8.251
 3534TIP3    H134055   1.117   0.842   8.311
 3534TIP3    H234056   1.092   0.741   8.208
 3535TIP3   OH234057   1.273   0.886   8.377
 3535TIP3    H134058   1.315   0.904   8.463
 3535TIP3    H234059   1.328   0.940   8.316
 3536TIP3   OH234060   1.641   0.112   8.488
 3536TIP3    H134061   1.558   0.127   8.441
 3536TIP3    H234062   1.700   0.168   8.433
 3537TIP3   OH234063   1.756   1.491   8.238
 3537TIP3    H134064   1.787   1.583   8.252
 3537TIP3    H234065   1.833   1.445   8.275
 3538TIP3   OH234066   1.352   1.725   8.328
 3538TIP3    H134067   1.374   1.666   8.252
 3538TIP3    H234068   1.398   1.674   8.399
 3539TIP3   OH234069   1.456   1.024   8.249
 3539TIP3    H134070   1.417   1.044   8.161
 3539TIP3    H234071   1.550   1.017   8.223
 3540TIP3   OH234072   1.001   0.373   8.258
 3540TIP3    H134073   0.939   0.403   8.325
 3540TIP3    H234074   0.960   0.290   8.229
 3541TIP3   OH234075   0.654   0.394   8.174
 3541TIP3    H134076   0.588   0.356   8.236
 3541TIP3    H234077   0.614   0.481   8.153
 3542TIP3   OH234078   0.200   0.463   8.475
 3542TIP3    H134079   0.220   0.516   8.394
 3542TIP3    H234080   0.106   0.443   8.460
 3543TIP3   OH234081   0.572   0.664   8.307
 3543TIP3    H134082   0.525   0.636   8.226
 3543TIP3    H234083   0.642   0.719   8.268
 3544TIP3   OH234084   1.262   0.396   8.357
 3544TIP3    H134085   1.170   0.420   8.340
 3544TIP3    H234086   1.293   0.469   8.416
 3545TIP3   OH234087   1.341   0.630   8.456
 3545TIP3    H134088   1.413   0.649   8.518
 3545TIP3    H234089   1.340   0.706   8.396
 3546TIP3   OH234090   1.086   1.269   8.394
 3546TIP3    H134091   1.034   1.351   8.398
 3546TIP3    H234092   1.037   1.212   8.455
 3547TIP3   OH234093   1.813   0.638   8.455
 3547TIP3    H134094   1.767   0.598   8.378
 3547TIP3    H234095   1.834   0.726   8.417
 3548TIP3   OH234096   0.180   0.944   8.271
 3548TIP3    H134097   0.247   0.986   8.331
 3548TIP3    H234098   0.119   0.907   8.336
 3549TIP3   OH234099   1.438   1.316   8.311
 3549TIP3    H134100   1.419   1.359   8.395
 3549TIP3    H234101   1.350   1.283   8.287
 3550TIP3   OH234102   1.834   1.740   8.303
 3550TIP3    H134103   1.910   1.799   8.313
 3550TIP3    H234104   1.764   1.796   8.340
 3551TIP3   OH234105   0.820   1.421   8.134
 3551TIP3    H134106   0.794   1.364   8.061
 3551TIP3    H234107   0.765   1.384   8.207
 3552TIP3   OH234108   0.678   1.363   8.368
 3552TIP3    H134109   0.671   1.300   8.443
 3552TIP3    H234110   0.676   1.448   8.417
 3553TIP3   OH234111   0.334   1.070   8.440
 3553TIP3    H134112   0.295   1.101   8.523
 3553TIP3    H234113   0.375   1.150   8.403
 3554TIP3   OH234114   0.922   1.523   8.414
 3554TIP3    H134115   0.830   1.556   8.427
 3554TIP3    H234116   0.963   1.599   8.371
 3555TIP3   OH234117   0.669   1.610   8.490
 3555TIP3    H134118   0.692   1.677   8.421
 3555TIP3    H234119   0.644   1.670   8.562
 3556TIP3   OH234120   0.499   0.307   8.393
 3556TIP3    H134121   0.469   0.386   8.441
 3556TIP3    H234122   0.594   0.311   8.419
 3557TIP3   OH234123   0.411   1.323   8.311
 3557TIP3    H134124   0.482   1.352   8.372
 3557TIP3    H234125   0.466   1.284   8.240
 3558TIP3   OH234126   0.194   0.652   8.261
 3558TIP3    H134127   0.210   0.747   8.253
 3558TIP3    H234128   0.141   0.633   8.183
 3559TIP3   OH234129   1.009   1.633   8.141
 3559TIP3    H134130   0.957   1.549   8.146
 3559TIP3    H234131   1.092   1.598   8.102
 3560TIP3   OH234132   1.454   1.558   8.135
 3560TIP3    H134133   1.484   1.499   8.207
 3560TIP3    H234134   1.533   1.554   8.077
 3561TIP3   OH234135   0.559   1.143   8.131
 3561TIP3    H134136   0.584   1.095   8.213
 3561TIP3    H234137   0.640   1.126   8.076
 3562TIP3   OH234138   1.148   1.281   8.133
 3562TIP3    H134139   1.131   1.271   8.229
 3562TIP3    H234140   1.121   1.191   8.101
 3563TIP3   OH234141   0.671   0.982   8.344
 3563TIP3    H134142   0.666   0.923   8.421
 3563TIP3    H234143   0.707   0.920   8.276
 3564TIP3   OH234144   0.773   0.803   8.175
 3564TIP3    H134145   0.769   0.832   8.081
 3564TIP3    H234146   0.871   0.795   8.185
 3565TIP3   OH234147   1.716   1.018   8.153
 3565TIP3    H134148   1.702   0.990   8.059
 3565TIP3    H234149   1.717   1.117   8.142
 3566TIP3   OH234150   0.772   1.802   8.347
 3566TIP3    H134151   0.867   1.813   8.361
 3566TIP3    H234152   0.757   1.870   8.278
 3567TIP3   OH234153   0.156   1.290   8.287
 3567TIP3    H134154   0.247   1.321   8.304
 3567TIP3    H234155   0.173   1.223   8.217
 3568TIP3   OH234156   1.872   0.903   8.347
 3568TIP3    H134157   1.819   0.930   8.269
 3568TIP3    H234158   1.849   0.972   8.412
 3569TIP3   OH234159   1.642   0.647   8.214
 3569TIP3    H134160   1.677   0.685   8.132
 3569TIP3    H234161   1.615   0.556   8.188
 3570TIP3   OH234162   1.604   0.372   8.153
 3570TIP3    H134163   1.642   0.334   8.234
 3570TIP3    H234164   1.510   0.347   8.160
 3571TIP3   OH234165   1.808   0.234   8.314
 3571TIP3    H134166   1.847   0.197   8.231
 3571TIP3    H234167   1.870   0.309   8.332
 3572TIP3   OH234168   0.097   0.146   8.422
 3572TIP3    H134169   0.176   0.165   8.368
 3572TIP3    H234170   0.121   0.191   8.504
 3573TIP3   OH234171   0.304   0.191   8.238
 3573TIP3    H134172   0.365   0.165   8.166
 3573TIP3    H234173   0.370   0.213   8.306
 3574TIP3   OH234174   1.069   1.777   8.363
 3574TIP3    H134175   1.165   1.786   8.350
 3574TIP3    H234176   1.041   1.746   8.273
 3575TIP3   OH234177   0.333   1.764   8.203
 3575TIP3    H134178   0.290   1.797   8.284
 3575TIP3    H234179   0.392   1.697   8.241
 3576TIP3   OH234180   2.929   0.824   8.243
 3576TIP3    H134181   2.999   0.849   8.306
 3576TIP3    H234182   2.972   0.745   8.206
 3577TIP3   OH234183   3.163   0.873   8.367
 3577TIP3    H134184   3.148   0.925   8.447
 3577TIP3    H234185   3.228   0.926   8.315
 3578TIP3   OH234186   3.523   0.070   8.425
 3578TIP3    H134187   3.500   0.096   8.515
 3578TIP3    H234188   3.600   0.129   8.409
 3579TIP3   OH234189   3.657   1.490   8.225
 3579TIP3    H134190   3.669   1.582   8.257
 3579TIP3    H234191   3.739   1.449   8.258
 3580TIP3   OH234192   3.247   1.715   8.332
 3580TIP3    H134193   3.265   1.655   8.256
 3580TIP3    H234194   3.288   1.664   8.405
 3581TIP3   OH234195   3.345   1.017   8.235
 3581TIP3    H134196   3.315   1.018   8.142
 3581TIP3    H234197   3.441   1.022   8.219
 3582TIP3   OH234198   2.901   0.341   8.275
 3582TIP3    H134199   2.838   0.408   8.305
 3582TIP3    H234200   2.843   0.275   8.234
 3583TIP3   OH234201   2.526   0.385   8.170
 3583TIP3    H134202   2.471   0.347   8.240
 3583TIP3    H234203   2.479   0.469   8.151
 3584TIP3   OH234204   1.981   0.412   8.414
 3584TIP3    H134205   2.047   0.465   8.365
 3584TIP3    H234206   1.932   0.487   8.455
 3585TIP3   OH234207   2.445   0.669   8.309
 3585TIP3    H134208   2.375   0.672   8.241
 3585TIP3    H234209   2.522   0.696   8.256
 3586TIP3   OH234210   3.172   0.361   8.359
 3586TIP3    H134211   3.074   0.364   8.364
 3586TIP3    H234212   3.191   0.438   8.418
 3587TIP3   OH234213   3.215   0.620   8.449
 3587TIP3    H134214   3.274   0.646   8.522
 3587TIP3    H234215   3.198   0.703   8.399
 3588TIP3   OH234216   2.959   1.276   8.415
 3588TIP3    H134217   2.906   1.358   8.418
 3588TIP3    H234218   2.894   1.209   8.440
 3589TIP3   OH234219   3.695   0.631   8.454
 3589TIP3    H134220   3.658   0.578   8.383
 3589TIP3    H234221   3.720   0.712   8.406
 3590TIP3   OH234222   2.132   0.930   8.245
 3590TIP3    H134223   2.162   1.004   8.302
 3590TIP3    H234224   2.038   0.924   8.272
 3591TIP3   OH234225   3.309   1.300   8.296
 3591TIP3    H134226   3.273   1.300   8.386
 3591TIP3    H234227   3.227   1.286   8.245
 3592TIP3   OH234228   3.705   1.740   8.325
 3592TIP3    H134229   3.789   1.788   8.318
 3592TIP3    H234230   3.649   1.806   8.370
 3593TIP3   OH234231   2.705   1.426   8.125
 3593TIP3    H134232   2.662   1.370   8.058
 3593TIP3    H234233   2.662   1.390   8.207
 3594TIP3   OH234234   2.570   1.353   8.368
 3594TIP3    H134235   2.605   1.308   8.445
 3594TIP3    H234236   2.559   1.443   8.403
 3595TIP3   OH234237   2.209   1.096   8.429
 3595TIP3    H134238   2.189   1.036   8.503
 3595TIP3    H234239   2.301   1.122   8.451
 3596TIP3   OH234240   2.811   1.514   8.421
 3596TIP3    H134241   2.722   1.556   8.423
 3596TIP3    H234242   2.865   1.586   8.384
 3597TIP3   OH234243   2.549   1.605   8.494
 3597TIP3    H134244   2.534   1.672   8.426
 3597TIP3    H234245   2.574   1.664   8.567
 3598TIP3   OH234246   2.374   0.317   8.382
 3598TIP3    H134247   2.374   0.400   8.432
 3598TIP3    H234248   2.468   0.297   8.404
 3599TIP3   OH234249   2.255   1.358   8.273
 3599TIP3    H134250   2.314   1.398   8.338
 3599TIP3    H234251   2.318   1.298   8.231
 3600TIP3   OH234252   2.081   0.652   8.287
 3600TIP3    H134253   2.120   0.741   8.293
 3600TIP3    H234254   2.031   0.658   8.205
 3601TIP3   OH234255   2.903   1.621   8.141
 3601TIP3    H134256   2.845   1.542   8.134
 3601TIP3    H234257   2.983   1.589   8.094
 3602TIP3   OH234258   3.335   1.545   8.133
 3602TIP3    H134259   3.365   1.488   8.206
 3602TIP3    H234260   3.417   1.555   8.080
 3603TIP3   OH234261   2.442   1.145   8.128
 3603TIP3    H134262   2.456   1.082   8.200
 3603TIP3    H234263   2.522   1.128   8.073
 3604TIP3   OH234264   3.038   1.281   8.138
 3604TIP3    H134265   3.009   1.271   8.231
 3604TIP3    H234266   3.010   1.193   8.101
 3605TIP3   OH234267   2.574   0.965   8.366
 3605TIP3    H134268   2.515   0.902   8.411
 3605TIP3    H234269   2.613   0.910   8.294
 3606TIP3   OH234270   2.670   0.800   8.180
 3606TIP3    H134271   2.665   0.824   8.085
 3606TIP3    H234272   2.767   0.800   8.193
 3607TIP3   OH234273   3.609   1.011   8.143
 3607TIP3    H134274   3.593   0.986   8.049
 3607TIP3    H234275   3.602   1.110   8.133
 3608TIP3   OH234276   2.659   1.827   8.379
 3608TIP3    H134277   2.749   1.817   8.343
 3608TIP3    H234278   2.626   1.899   8.323
 3609TIP3   OH234279   1.982   1.311   8.284
 3609TIP3    H134280   2.080   1.322   8.283
 3609TIP3    H234281   1.969   1.253   8.207
 3610TIP3   OH234282   3.749   0.894   8.341
 3610TIP3    H134283   3.709   0.940   8.263
 3610TIP3    H234284   3.739   0.962   8.411
 3611TIP3   OH234285   3.523   0.649   8.184
 3611TIP3    H134286   3.572   0.733   8.175
 3611TIP3    H234287   3.514   0.620   8.091
 3612TIP3   OH234288   3.486   0.385   8.152
 3612TIP3    H134289   3.554   0.431   8.205
 3612TIP3    H234290   3.413   0.448   8.162
 3613TIP3   OH234291   3.674   0.254   8.317
 3613TIP3    H134292   3.702   0.201   8.239
 3613TIP3    H234293   3.758   0.300   8.340
 3614TIP3   OH234294   2.034   0.075   8.434
 3614TIP3    H134295   2.084   0.131   8.371
 3614TIP3    H234296   1.949   0.121   8.428
 3615TIP3   OH234297   2.176   0.215   8.228
 3615TIP3    H134298   2.232   0.168   8.161
 3615TIP3    H234299   2.245   0.242   8.292
 3616TIP3   OH234300   2.945   1.761   8.354
 3616TIP3    H134301   3.031   1.798   8.331
 3616TIP3    H234302   2.922   1.723   8.265
 3617TIP3   OH234303   2.168   1.763   8.186
 3617TIP3    H134304   2.141   1.802   8.271
 3617TIP3    H234305   2.236   1.699   8.212
 3618TIP3   OH234306   4.805   0.791   8.247
 3618TIP3    H134307   4.880   0.820   8.302
 3618TIP3    H234308   4.853   0.730   8.187
 3619TIP3   OH234309   5.038   0.871   8.367
 3619TIP3    H134310   5.048   0.910   8.456
 3619TIP3    H234311   5.091   0.932   8.309
 3620TIP3   OH234312   5.413   0.116   8.483
 3620TIP3    H134313   5.339   0.077   8.434
 3620TIP3    H234314   5.461   0.164   8.412
 3621TIP3   OH234315   5.548   1.501   8.212
 3621TIP3    H134316   5.562   1.597   8.229
 3621TIP3    H234317   5.626   1.467   8.259
 3622TIP3   OH234318   5.132   1.730   8.328
 3622TIP3    H134319   5.152   1.669   8.254
 3622TIP3    H234320   5.174   1.681   8.401
 3623TIP3   OH234321   5.216   1.021   8.243
 3623TIP3    H134322   5.189   1.018   8.148
 3623TIP3    H234323   5.312   1.023   8.229
 3624TIP3   OH234324   4.776   0.335   8.269
 3624TIP3    H134325   4.757   0.405   8.333
 3624TIP3    H234326   4.701   0.353   8.210
 3625TIP3   OH234327   4.456   0.435   8.218
 3625TIP3    H134328   4.394   0.382   8.272
 3625TIP3    H234329   4.402   0.440   8.136
 3626TIP3   OH234330   3.881   0.406   8.405
 3626TIP3    H134331   3.940   0.464   8.352
 3626TIP3    H234332   3.841   0.471   8.465
 3627TIP3   OH234333   4.303   0.675   8.313
 3627TIP3    H134334   4.226   0.681   8.256
 3627TIP3    H234335   4.371   0.662   8.244
 3628TIP3   OH234336   5.073   0.374   8.379
 3628TIP3    H134337   4.987   0.361   8.422
 3628TIP3    H234338   5.097   0.464   8.415
 3629TIP3   OH234339   5.100   0.625   8.462
 3629TIP3    H134340   5.188   0.658   8.490
 3629TIP3    H234341   5.073   0.693   8.396
 3630TIP3   OH234342   4.841   1.287   8.415
 3630TIP3    H134343   4.786   1.368   8.420
 3630TIP3    H234344   4.780   1.217   8.442
 3631TIP3   OH234345   5.593   0.631   8.479
 3631TIP3    H134346   5.559   0.600   8.393
 3631TIP3    H234347   5.616   0.723   8.453
 3632TIP3   OH234348   4.022   0.931   8.258
 3632TIP3    H134349   4.039   1.009   8.315
 3632TIP3    H234350   3.928   0.912   8.281
 3633TIP3   OH234351   5.208   1.314   8.306
 3633TIP3    H134352   5.180   1.342   8.395
 3633TIP3    H234353   5.122   1.282   8.271
 3634TIP3   OH234354   5.592   1.751   8.292
 3634TIP3    H134355   5.671   1.802   8.315
 3634TIP3    H234356   5.525   1.805   8.337
 3635TIP3   OH234357   4.590   1.428   8.127
 3635TIP3    H134358   4.556   1.371   8.056
 3635TIP3    H234359   4.549   1.384   8.204
 3636TIP3   OH234360   4.452   1.349   8.379
 3636TIP3    H134361   4.496   1.307   8.455
 3636TIP3    H234362   4.437   1.439   8.414
 3637TIP3   OH234363   4.070   1.099   8.457
 3637TIP3    H134364   4.057   1.023   8.517
 3637TIP3    H234365   4.165   1.114   8.470
 3638TIP3   OH234366   4.690   1.526   8.422
 3638TIP3    H134367   4.600   1.562   8.421
 3638TIP3    H234368   4.740   1.601   8.383
 3639TIP3   OH234369   4.414   1.591   8.490
 3639TIP3    H134370   4.402   1.665   8.428
 3639TIP3    H234371   4.443   1.639   8.568
 3640TIP3   OH234372   4.302   0.281   8.386
 3640TIP3    H134373   4.282   0.367   8.426
 3640TIP3    H234374   4.393   0.274   8.420
 3641TIP3   OH234375   4.141   1.363   8.301
 3641TIP3    H134376   4.204   1.396   8.366
 3641TIP3    H234377   4.201   1.308   8.249
 3642TIP3   OH234378   3.981   0.656   8.309
 3642TIP3    H134379   4.021   0.746   8.318
 3642TIP3    H234380   3.979   0.645   8.213
 3643TIP3   OH234381   4.791   1.630   8.140
 3643TIP3    H134382   4.732   1.551   8.135
 3643TIP3    H234383   4.870   1.597   8.091
 3644TIP3   OH234384   5.219   1.557   8.136
 3644TIP3    H134385   5.244   1.495   8.209
 3644TIP3    H234386   5.303   1.557   8.085
 3645TIP3   OH234387   4.336   1.144   8.124
 3645TIP3    H134388   4.375   1.116   8.208
 3645TIP3    H234389   4.411   1.123   8.062
 3646TIP3   OH234390   4.919   1.288   8.137
 3646TIP3    H134391   4.894   1.280   8.231
 3646TIP3    H234392   4.891   1.199   8.103
 3647TIP3   OH234393   4.439   0.982   8.365
 3647TIP3    H134394   4.416   0.916   8.432
 3647TIP3    H234395   4.472   0.923   8.292
 3648TIP3   OH234396   4.548   0.817   8.189
 3648TIP3    H134397   4.543   0.807   8.092
 3648TIP3    H234398   4.643   0.799   8.207
 3649TIP3   OH234399   5.483   1.016   8.160
 3649TIP3    H134400   5.475   0.989   8.065
 3649TIP3    H234401   5.478   1.115   8.151
 3650TIP3   OH234402   4.546   1.824   8.399
 3650TIP3    H134403   4.644   1.833   8.401
 3650TIP3    H234404   4.525   1.884   8.325
 3651TIP3   OH234405   3.864   1.313   8.284
 3651TIP3    H134406   3.963   1.310   8.288
 3651TIP3    H234407   3.845   1.266   8.202
 3652TIP3   OH234408   5.639   0.893   8.350
 3652TIP3    H134409   5.591   0.924   8.270
 3652TIP3    H234410   5.612   0.958   8.416
 3653TIP3   OH234411   5.428   0.649   8.207
 3653TIP3    H134412   5.454   0.702   8.131
 3653TIP3    H234413   5.399   0.566   8.165
 3654TIP3   OH234414   5.375   0.364   8.160
 3654TIP3    H134415   5.444   0.335   8.224
 3654TIP3    H234416   5.295   0.336   8.206
 3655TIP3   OH234417   5.580   0.249   8.305
 3655TIP3    H134418   5.621   0.202   8.229
 3655TIP3    H234419   5.652   0.309   8.335
 3656TIP3   OH234420   3.957   0.110   8.401
 3656TIP3    H134421   3.992   0.176   8.337
 3656TIP3    H234422   3.987   0.151   8.484
 3657TIP3   OH234423   4.088   0.262   8.230
 3657TIP3    H134424   4.104   0.189   8.166
 3657TIP3    H234425   4.175   0.260   8.277
 3658TIP3   OH234426   4.837   1.772   8.355
 3658TIP3    H134427   4.932   1.791   8.347
 3658TIP3    H234428   4.820   1.737   8.264
 3659TIP3   OH234429   4.050   1.753   8.178
 3659TIP3    H134430   4.031   1.804   8.260
 3659TIP3    H234431   4.122   1.694   8.205
 3660TIP3   OH234432   6.694   0.805   8.250
 3660TIP3    H134433   6.766   0.817   8.316
 3660TIP3    H234434   6.740   0.737   8.197
 3661TIP3   OH234435   6.927   0.883   8.364
 3661TIP3    H134436   6.919   0.927   8.450
 3661TIP3    H234437   6.987   0.944   8.315
 3662TIP3   OH234438   7.266   0.083   8.449
 3662TIP3    H134439   7.180   0.107   8.413
 3662TIP3    H234440   7.326   0.147   8.406
 3663TIP3   OH234441   7.425   1.490   8.224
 3663TIP3    H134442   7.437   1.576   8.271
 3663TIP3    H234443   7.480   1.433   8.281
 3664TIP3   OH234444   6.958   1.733   8.333
 3664TIP3    H134445   6.999   1.669   8.269
 3664TIP3    H234446   7.014   1.713   8.410
 3665TIP3   OH234447   7.095   1.059   8.247
 3665TIP3    H134448   7.077   1.058   8.150
 3665TIP3    H234449   7.190   1.035   8.244
 3666TIP3   OH234450   6.655   0.385   8.272
 3666TIP3    H134451   6.601   0.406   8.349
 3666TIP3    H234452   6.629   0.295   8.250
 3667TIP3   OH234453   6.284   0.394   8.148
 3667TIP3    H134454   6.238   0.370   8.231
 3667TIP3    H234455   6.257   0.488   8.138
 3668TIP3   OH234456   5.750   0.415   8.418
 3668TIP3    H134457   5.804   0.481   8.369
 3668TIP3    H234458   5.701   0.474   8.479
 3669TIP3   OH234459   6.257   0.650   8.278
 3669TIP3    H134460   6.202   0.644   8.197
 3669TIP3    H234461   6.326   0.713   8.246
 3670TIP3   OH234462   6.921   0.391   8.353
 3670TIP3    H134463   6.825   0.406   8.346
 3670TIP3    H234464   6.951   0.478   8.391
 3671TIP3   OH234465   7.003   0.621   8.456
 3671TIP3    H134466   7.067   0.631   8.529
 3671TIP3    H234467   7.015   0.703   8.406
 3672TIP3   OH234468   6.729   1.266   8.400
 3672TIP3    H134469   6.669   1.342   8.399
 3672TIP3    H234470   6.674   1.195   8.435
 3673TIP3   OH234471   7.469   0.642   8.430
 3673TIP3    H134472   7.407   0.623   8.356
 3673TIP3    H234473   7.501   0.731   8.403
 3674TIP3   OH234474   5.911   0.919   8.250
 3674TIP3    H134475   5.941   0.991   8.311
 3674TIP3    H234476   5.817   0.913   8.274
 3675TIP3   OH234477   7.115   1.342   8.306
 3675TIP3    H134478   7.110   1.334   8.402
 3675TIP3    H234479   7.041   1.286   8.275
 3676TIP3   OH234480   7.467   1.714   8.372
 3676TIP3    H134481   7.533   1.777   8.340
 3676TIP3    H234482   7.393   1.772   8.398
 3677TIP3   OH234483   6.466   1.414   8.126
 3677TIP3    H134484   6.426   1.370   8.050
 3677TIP3    H234485   6.426   1.364   8.200
 3678TIP3   OH234486   6.345   1.355   8.370
 3678TIP3    H134487   6.356   1.288   8.438
 3678TIP3    H234488   6.352   1.435   8.427
 3679TIP3   OH234489   5.980   1.088   8.437
 3679TIP3    H134490   5.950   1.032   8.512
 3679TIP3    H234491   6.072   1.109   8.462
 3680TIP3   OH234492   6.563   1.527   8.393
 3680TIP3    H134493   6.475   1.565   8.410
 3680TIP3    H234494   6.620   1.605   8.393
 3681TIP3   OH234495   6.313   1.603   8.498
 3681TIP3    H134496   6.294   1.664   8.424
 3681TIP3    H234497   6.339   1.668   8.565
 3682TIP3   OH234498   6.168   0.299   8.385
 3682TIP3    H134499   6.155   0.371   8.449
 3682TIP3    H234500   6.264   0.294   8.399
 3683TIP3   OH234501   6.025   1.354   8.302
 3683TIP3    H134502   6.090   1.379   8.369
 3683TIP3    H234503   6.080   1.295   8.247
 3684TIP3   OH234504   5.852   0.650   8.290
 3684TIP3    H134505   5.890   0.739   8.281
 3684TIP3    H234506   5.813   0.636   8.203
 3685TIP3   OH234507   6.654   1.633   8.140
 3685TIP3    H134508   6.615   1.542   8.152
 3685TIP3    H234509   6.744   1.611   8.108
 3686TIP3   OH234510   7.115   1.573   8.151
 3686TIP3    H134511   7.146   1.513   8.222
 3686TIP3    H234512   7.192   1.565   8.089
 3687TIP3   OH234513   6.200   1.162   8.132
 3687TIP3    H134514   6.210   1.097   8.203
 3687TIP3    H234515   6.280   1.145   8.077
 3688TIP3   OH234516   6.805   1.289   8.133
 3688TIP3    H134517   6.781   1.276   8.227
 3688TIP3    H234518   6.773   1.206   8.092
 3689TIP3   OH234519   6.343   0.970   8.352
 3689TIP3    H134520   6.298   0.907   8.410
 3689TIP3    H234521   6.375   0.912   8.279
 3690TIP3   OH234522   6.439   0.802   8.168
 3690TIP3    H134523   6.430   0.819   8.072
 3690TIP3    H234524   6.537   0.795   8.180
 3691TIP3   OH234525   7.362   1.030   8.158
 3691TIP3    H134526   7.340   0.997   8.067
 3691TIP3    H234527   7.348   1.128   8.145
 3692TIP3   OH234528   6.412   1.808   8.354
 3692TIP3    H134529   6.493   1.845   8.397
 3692TIP3    H234530   6.355   1.887   8.357
 3693TIP3   OH234531   5.752   1.320   8.281
 3693TIP3    H134532   5.849   1.332   8.279
 3693TIP3    H234533   5.739   1.258   8.207
 3694TIP3   OH234534   7.524   0.905   8.342
 3694TIP3    H134535   7.490   0.938   8.258
 3694TIP3    H234536   7.560   0.987   8.380
 3695TIP3   OH234537   7.305   0.623   8.211
 3695TIP3    H134538   7.327   0.666   8.128
 3695TIP3    H234539   7.280   0.532   8.181
 3696TIP3   OH234540   7.259   0.365   8.144
 3696TIP3    H134541   7.292   0.335   8.231
 3696TIP3    H234542   7.164   0.340   8.149
 3697TIP3   OH234543   7.456   0.231   8.315
 3697TIP3    H134544   7.482   0.154   8.261
 3697TIP3    H234545   7.541   0.280   8.317
 3698TIP3   OH234546   5.842   0.086   8.414
 3698TIP3    H134547   5.860   0.169   8.364
 3698TIP3    H234548   5.784   0.122   8.482
 3699TIP3   OH234549   5.951   0.251   8.234
 3699TIP3    H134550   6.011   0.211   8.168
 3699TIP3    H234551   6.016   0.269   8.306
 3700TIP3   OH234552   6.683   1.825   8.324
 3700TIP3    H134553   6.779   1.831   8.339
 3700TIP3    H234554   6.690   1.746   8.267
 3701TIP3   OH234555   5.994   1.775   8.204
 3701TIP3    H134556   5.934   1.795   8.280
 3701TIP3    H234557   6.029   1.688   8.224
 3702TIP3   OH234558   7.641   0.420   8.386
 3702TIP3    H134559   7.664   0.458   8.300
 3702TIP3    H234560   7.584   0.490   8.422
 3703TIP3   OH234561   7.598   1.278   8.330
 3703TIP3    H134562   7.696   1.290   8.319
 3703TIP3    H234563   7.575   1.254   8.239
 3704TIP3   OH234564   1.041   2.691   8.250
 3704TIP3    H134565   1.114   2.734   8.298
 3704TIP3    H234566   1.087   2.610   8.222
 3705TIP3   OH234567   1.280   2.756   8.367
 3705TIP3    H134568   1.274   2.811   8.447
 3705TIP3    H234569   1.328   2.813   8.302
 3706TIP3   OH234570   1.659   1.927   8.457
 3706TIP3    H134571   1.587   1.915   8.394
 3706TIP3    H234572   1.712   1.998   8.412
 3707TIP3   OH234573   1.777   3.393   8.212
 3707TIP3    H134574   1.787   3.488   8.236
 3707TIP3    H234575   1.853   3.357   8.262
 3708TIP3   OH234576   1.363   3.616   8.332
 3708TIP3    H134577   1.383   3.552   8.260
 3708TIP3    H234578   1.400   3.567   8.409
 3709TIP3   OH234579   1.442   2.897   8.226
 3709TIP3    H134580   1.413   2.916   8.135
 3709TIP3    H234581   1.529   2.939   8.225
 3710TIP3   OH234582   1.019   2.222   8.290
 3710TIP3    H134583   0.931   2.251   8.317
 3710TIP3    H234584   0.993   2.160   8.220
 3711TIP3   OH234585   0.657   2.276   8.169
 3711TIP3    H134586   0.589   2.243   8.231
 3711TIP3    H234587   0.604   2.329   8.107
 3712TIP3   OH234588   0.167   2.350   8.438
 3712TIP3    H134589   0.169   2.390   8.349
 3712TIP3    H234590   0.074   2.323   8.449
 3713TIP3   OH234591   0.575   2.515   8.330
 3713TIP3    H134592   0.518   2.482   8.258
 3713TIP3    H234593   0.633   2.571   8.276
 3714TIP3   OH234594   1.284   2.322   8.294
 3714TIP3    H134595   1.187   2.317   8.311
 3714TIP3    H234596   1.315   2.377   8.370
 3715TIP3   OH234597   1.331   2.516   8.474
 3715TIP3    H134598   1.408   2.524   8.533
 3715TIP3    H234599   1.339   2.593   8.412
 3716TIP3   OH234600   1.101   3.145   8.401
 3716TIP3    H134601   1.046   3.225   8.406
 3716TIP3    H234602   1.049   3.083   8.453
 3717TIP3   OH234603   1.833   2.512   8.448
 3717TIP3    H134604   1.770   2.478   8.382
 3717TIP3    H234605   1.848   2.604   8.417
 3718TIP3   OH234606   0.167   2.799   8.272
 3718TIP3    H134607   0.232   2.854   8.323
 3718TIP3    H234608   0.095   2.802   8.335
 3719TIP3   OH234609   1.439   3.177   8.309
 3719TIP3    H134610   1.416   3.224   8.390
 3719TIP3    H234611   1.348   3.159   8.275
 3720TIP3   OH234612   1.826   3.626   8.320
 3720TIP3    H134613   1.910   3.675   8.310
 3720TIP3    H234614   1.769   3.697   8.355
 3721TIP3   OH234615   0.819   3.315   8.131
 3721TIP3    H134616   0.792   3.255   8.060
 3721TIP3    H234617   0.777   3.273   8.208
 3722TIP3   OH234618   0.679   3.253   8.383
 3722TIP3    H134619   0.696   3.196   8.460
 3722TIP3    H234620   0.678   3.341   8.426
 3723TIP3   OH234621   0.296   2.950   8.444
 3723TIP3    H134622   0.287   2.957   8.539
 3723TIP3    H234623   0.358   3.021   8.421
 3724TIP3   OH234624   0.914   3.406   8.429
 3724TIP3    H134625   0.823   3.443   8.424
 3724TIP3    H234626   0.964   3.476   8.383
 3725TIP3   OH234627   0.670   3.507   8.490
 3725TIP3    H134628   0.690   3.564   8.411
 3725TIP3    H234629   0.648   3.578   8.551
 3726TIP3   OH234630   0.502   2.183   8.370
 3726TIP3    H134631   0.482   2.239   8.447
 3726TIP3    H234632   0.595   2.159   8.383
 3727TIP3   OH234633   0.431   3.187   8.297
 3727TIP3    H134634   0.515   3.220   8.336
 3727TIP3    H234635   0.471   3.135   8.223
 3728TIP3   OH234636   0.199   2.519   8.222
 3728TIP3    H134637   0.208   2.600   8.274
 3728TIP3    H234638   0.148   2.550   8.145
 3729TIP3   OH234639   1.013   3.506   8.144
 3729TIP3    H134640   0.951   3.429   8.141
 3729TIP3    H234641   1.090   3.469   8.097
 3730TIP3   OH234642   1.450   3.440   8.137
 3730TIP3    H134643   1.491   3.388   8.208
 3730TIP3    H234644   1.527   3.450   8.076
 3731TIP3   OH234645   0.572   3.036   8.132
 3731TIP3    H134646   0.613   2.994   8.211
 3731TIP3    H234647   0.645   3.026   8.066
 3732TIP3   OH234648   1.162   3.165   8.136
 3732TIP3    H134649   1.136   3.153   8.229
 3732TIP3    H234650   1.140   3.075   8.099
 3733TIP3   OH234651   0.666   2.859   8.359
 3733TIP3    H134652   0.655   2.801   8.436
 3733TIP3    H234653   0.695   2.793   8.291
 3734TIP3   OH234654   0.771   2.696   8.180
 3734TIP3    H134655   0.760   2.704   8.083
 3734TIP3    H234656   0.868   2.688   8.190
 3735TIP3   OH234657   1.704   2.897   8.134
 3735TIP3    H134658   1.721   2.882   8.038
 3735TIP3    H234659   1.708   2.997   8.137
 3736TIP3   OH234660   0.771   3.707   8.358
 3736TIP3    H134661   0.859   3.733   8.388
 3736TIP3    H234662   0.761   3.767   8.281
 3737TIP3   OH234663   0.167   3.182   8.282
 3737TIP3    H134664   0.264   3.201   8.285
 3737TIP3    H234665   0.165   3.128   8.200
 3738TIP3   OH234666   1.876   2.772   8.346
 3738TIP3    H134667   1.834   2.807   8.266
 3738TIP3    H234668   1.856   2.842   8.411
 3739TIP3   OH234669   1.650   2.519   8.208
 3739TIP3    H134670   1.731   2.503   8.156
 3739TIP3    H234671   1.610   2.430   8.206
 3740TIP3   OH234672   1.608   2.245   8.174
 3740TIP3    H134673   1.662   2.191   8.236
 3740TIP3    H234674   1.523   2.246   8.221
 3741TIP3   OH234675   1.810   2.097   8.315
 3741TIP3    H134676   1.836   2.048   8.233
 3741TIP3    H234677   1.890   2.152   8.331
 3742TIP3   OH234678   0.180   1.943   8.382
 3742TIP3    H134679   0.188   1.986   8.295
 3742TIP3    H234680   0.199   2.014   8.446
 3743TIP3   OH234681   0.293   2.123   8.205
 3743TIP3    H134682   0.353   2.065   8.152
 3743TIP3    H234683   0.344   2.134   8.288
 3744TIP3   OH234684   1.071   3.641   8.366
 3744TIP3    H134685   1.158   3.679   8.351
 3744TIP3    H234686   1.049   3.612   8.274
 3745TIP3   OH234687   0.333   3.659   8.209
 3745TIP3    H134688   0.288   3.681   8.293
 3745TIP3    H234689   0.392   3.585   8.235
 3746TIP3   OH234690   2.953   2.703   8.256
 3746TIP3    H134691   3.023   2.723   8.322
 3746TIP3    H234692   2.997   2.627   8.213
 3747TIP3   OH234693   3.176   2.763   8.390
 3747TIP3    H134694   3.207   2.793   8.477
 3747TIP3    H234695   3.234   2.812   8.326
 3748TIP3   OH234696   3.546   1.918   8.451
 3748TIP3    H134697   3.474   1.911   8.388
 3748TIP3    H234698   3.594   1.998   8.417
 3749TIP3   OH234699   3.663   3.390   8.221
 3749TIP3    H134700   3.677   3.485   8.241
 3749TIP3    H234701   3.744   3.353   8.262
 3750TIP3   OH234702   3.228   3.625   8.344
 3750TIP3    H134703   3.265   3.564   8.277
 3750TIP3    H234704   3.259   3.577   8.424
 3751TIP3   OH234705   3.343   2.895   8.240
 3751TIP3    H134706   3.310   2.905   8.148
 3751TIP3    H234707   3.439   2.903   8.224
 3752TIP3   OH234708   2.904   2.207   8.321
 3752TIP3    H134709   2.826   2.243   8.363
 3752TIP3    H234710   2.867   2.159   8.246
 3753TIP3   OH234711   2.523   2.294   8.163
 3753TIP3    H134712   2.478   2.249   8.240
 3753TIP3    H234713   2.450   2.293   8.100
 3754TIP3   OH234714   1.981   2.284   8.413
 3754TIP3    H134715   2.039   2.332   8.351
 3754TIP3    H234716   1.921   2.358   8.436
 3755TIP3   OH234717   2.430   2.549   8.319
 3755TIP3    H134718   2.371   2.519   8.247
 3755TIP3    H234719   2.518   2.537   8.281
 3756TIP3   OH234720   3.160   2.314   8.292
 3756TIP3    H134721   3.069   2.300   8.326
 3756TIP3    H234722   3.201   2.367   8.364
 3757TIP3   OH234723   3.212   2.511   8.471
 3757TIP3    H134724   3.280   2.528   8.539
 3757TIP3    H234725   3.209   2.592   8.416
 3758TIP3   OH234726   2.964   3.164   8.431
 3758TIP3    H134727   2.904   3.239   8.418
 3758TIP3    H234728   2.902   3.093   8.452
 3759TIP3   OH234729   3.716   2.507   8.441
 3759TIP3    H134730   3.644   2.461   8.391
 3759TIP3    H234731   3.700   2.601   8.423
 3760TIP3   OH234732   2.143   2.809   8.251
 3760TIP3    H134733   2.175   2.882   8.307
 3760TIP3    H234734   2.056   2.793   8.294
 3761TIP3   OH234735   3.310   3.198   8.308
 3761TIP3    H134736   3.290   3.242   8.392
 3761TIP3    H234737   3.222   3.166   8.282
 3762TIP3   OH234738   3.713   3.638   8.308
 3762TIP3    H134739   3.792   3.693   8.318
 3762TIP3    H234740   3.649   3.694   8.357
 3763TIP3   OH234741   2.718   3.312   8.113
 3763TIP3    H134742   2.687   3.233   8.069
 3763TIP3    H234743   2.685   3.295   8.204
 3764TIP3   OH234744   2.559   3.232   8.356
 3764TIP3    H134745   2.590   3.236   8.449
 3764TIP3    H234746   2.527   3.324   8.351
 3765TIP3   OH234747   2.207   2.981   8.436
 3765TIP3    H134748   2.164   2.917   8.497
 3765TIP3    H234749   2.293   2.995   8.480
 3766TIP3   OH234750   2.791   3.409   8.388
 3766TIP3    H134751   2.705   3.452   8.404
 3766TIP3    H234752   2.847   3.485   8.363
 3767TIP3   OH234753   2.535   3.484   8.478
 3767TIP3    H134754   2.510   3.552   8.414
 3767TIP3    H234755   2.566   3.539   8.552
 3768TIP3   OH234756   2.406   2.175   8.374
 3768TIP3    H134757   2.403   2.241   8.447
 3768TIP3    H234758   2.495   2.140   8.392
 3769TIP3   OH234759   2.241   3.268   8.288
 3769TIP3    H134760   2.290   3.329   8.345
 3769TIP3    H234761   2.308   3.201   8.269
 3770TIP3   OH234762   2.083   2.494   8.249
 3770TIP3    H134763   2.138   2.574   8.251
 3770TIP3    H234764   2.006   2.521   8.198
 3771TIP3   OH234765   2.893   3.525   8.140
 3771TIP3    H134766   2.849   3.437   8.140
 3771TIP3    H234767   2.983   3.502   8.109
 3772TIP3   OH234768   3.330   3.450   8.133
 3772TIP3    H134769   3.356   3.379   8.194
 3772TIP3    H234770   3.410   3.457   8.076
 3773TIP3   OH234771   2.451   3.047   8.140
 3773TIP3    H134772   2.488   3.065   8.229
 3773TIP3    H234773   2.528   3.059   8.081
 3774TIP3   OH234774   3.021   3.166   8.134
 3774TIP3    H134775   2.999   3.151   8.228
 3774TIP3    H234776   3.006   3.075   8.099
 3775TIP3   OH234777   2.548   2.862   8.346
 3775TIP3    H134778   2.509   2.811   8.420
 3775TIP3    H234779   2.635   2.819   8.337
 3776TIP3   OH234780   2.694   2.668   8.202
 3776TIP3    H134781   2.713   2.593   8.143
 3776TIP3    H234782   2.786   2.682   8.236
 3777TIP3   OH234783   3.601   2.914   8.144
 3777TIP3    H134784   3.584   2.885   8.052
 3777TIP3    H234785   3.602   3.012   8.132
 3778TIP3   OH234786   2.689   3.714   8.383
 3778TIP3    H134787   2.786   3.699   8.389
 3778TIP3    H234788   2.687   3.775   8.306
 3779TIP3   OH234789   1.981   3.198   8.271
 3779TIP3    H134790   2.079   3.208   8.276
 3779TIP3    H234791   1.973   3.139   8.195
 3780TIP3   OH234792   3.742   2.782   8.337
 3780TIP3    H134793   3.697   2.835   8.267
 3780TIP3    H234794   3.730   2.842   8.414
 3781TIP3   OH234795   3.540   2.523   8.200
 3781TIP3    H134796   3.482   2.575   8.142
 3781TIP3    H234797   3.510   2.430   8.181
 3782TIP3   OH234798   3.487   2.250   8.182
 3782TIP3    H134799   3.550   2.191   8.230
 3782TIP3    H234800   3.410   2.243   8.240
 3783TIP3   OH234801   3.683   2.108   8.316
 3783TIP3    H134802   3.712   2.053   8.238
 3783TIP3    H234803   3.766   2.157   8.337
 3784TIP3   OH234804   2.076   1.968   8.375
 3784TIP3    H134805   2.078   2.042   8.312
 3784TIP3    H234806   2.077   2.017   8.459
 3785TIP3   OH234807   2.186   2.160   8.214
 3785TIP3    H134808   2.248   2.097   8.170
 3785TIP3    H234809   2.234   2.171   8.299
 3786TIP3   OH234810   2.961   3.656   8.363
 3786TIP3    H134811   3.058   3.668   8.355
 3786TIP3    H234812   2.938   3.635   8.270
 3787TIP3   OH234813   2.173   3.653   8.172
 3787TIP3    H134814   2.140   3.692   8.256
 3787TIP3    H234815   2.233   3.585   8.204
 3788TIP3   OH234816   4.807   2.709   8.244
 3788TIP3    H134817   4.879   2.738   8.305
 3788TIP3    H234818   4.851   2.629   8.211
 3789TIP3   OH234819   5.048   2.760   8.366
 3789TIP3    H134820   5.086   2.777   8.455
 3789TIP3    H234821   5.105   2.815   8.307
 3790TIP3   OH234822   5.437   1.937   8.442
 3790TIP3    H134823   5.353   1.920   8.398
 3790TIP3    H234824   5.462   2.023   8.401
 3791TIP3   OH234825   5.544   3.377   8.211
 3791TIP3    H134826   5.551   3.474   8.221
 3791TIP3    H234827   5.618   3.349   8.268
 3792TIP3   OH234828   5.125   3.617   8.325
 3792TIP3    H134829   5.151   3.554   8.253
 3792TIP3    H234830   5.157   3.566   8.403
 3793TIP3   OH234831   5.228   2.917   8.252
 3793TIP3    H134832   5.198   2.937   8.161
 3793TIP3    H234833   5.324   2.906   8.234
 3794TIP3   OH234834   4.789   2.223   8.298
 3794TIP3    H134835   4.705   2.261   8.329
 3794TIP3    H234836   4.761   2.155   8.236
 3795TIP3   OH234837   4.412   2.305   8.166
 3795TIP3    H134838   4.362   2.251   8.231
 3795TIP3    H234839   4.345   2.369   8.136
 3796TIP3   OH234840   3.869   2.271   8.404
 3796TIP3    H134841   3.964   2.265   8.419
 3796TIP3    H234842   3.847   2.359   8.441
 3797TIP3   OH234843   4.295   2.561   8.306
 3797TIP3    H134844   4.271   2.503   8.234
 3797TIP3    H234845   4.363   2.615   8.262
 3798TIP3   OH234846   5.035   2.334   8.286
 3798TIP3    H134847   4.943   2.314   8.317
 3798TIP3    H234848   5.072   2.378   8.366
 3799TIP3   OH234849   5.105   2.519   8.470
 3799TIP3    H134850   5.194   2.531   8.508
 3799TIP3    H234851   5.100   2.586   8.400
 3800TIP3   OH234852   4.842   3.162   8.411
 3800TIP3    H134853   4.785   3.242   8.412
 3800TIP3    H234854   4.785   3.095   8.450
 3801TIP3   OH234855   5.599   2.521   8.443
 3801TIP3    H134856   5.553   2.468   8.376
 3801TIP3    H234857   5.612   2.604   8.393
 3802TIP3   OH234858   4.011   2.805   8.258
 3802TIP3    H134859   4.050   2.880   8.307
 3802TIP3    H234860   3.922   2.804   8.297
 3803TIP3   OH234861   5.205   3.201   8.300
 3803TIP3    H134862   5.187   3.233   8.390
 3803TIP3    H234863   5.118   3.162   8.278
 3804TIP3   OH234864   5.591   3.629   8.306
 3804TIP3    H134865   5.670   3.686   8.304
 3804TIP3    H234866   5.538   3.679   8.371
 3805TIP3   OH234867   4.587   3.309   8.127
 3805TIP3    H134868   4.558   3.250   8.056
 3805TIP3    H234869   4.539   3.269   8.203
 3806TIP3   OH234870   4.447   3.245   8.376
 3806TIP3    H134871   4.479   3.197   8.453
 3806TIP3    H234872   4.436   3.335   8.414
 3807TIP3   OH234873   4.083   2.992   8.425
 3807TIP3    H134874   4.045   2.929   8.491
 3807TIP3    H234875   4.175   2.994   8.457
 3808TIP3   OH234876   4.690   3.410   8.404
 3808TIP3    H134877   4.601   3.446   8.420
 3808TIP3    H234878   4.736   3.488   8.368
 3809TIP3   OH234879   4.423   3.488   8.487
 3809TIP3    H134880   4.419   3.556   8.417
 3809TIP3    H234881   4.454   3.543   8.560
 3810TIP3   OH234882   4.310   2.171   8.373
 3810TIP3    H134883   4.324   2.229   8.452
 3810TIP3    H234884   4.396   2.127   8.371
 3811TIP3   OH234885   4.140   3.253   8.293
 3811TIP3    H134886   4.205   3.273   8.362
 3811TIP3    H234887   4.186   3.181   8.249
 3812TIP3   OH234888   3.979   2.506   8.235
 3812TIP3    H134889   4.045   2.569   8.269
 3812TIP3    H234890   4.009   2.421   8.273
 3813TIP3   OH234891   4.777   3.509   8.136
 3813TIP3    H134892   4.721   3.427   8.135
 3813TIP3    H234893   4.857   3.476   8.090
 3814TIP3   OH234894   5.219   3.435   8.132
 3814TIP3    H134895   5.240   3.359   8.190
 3814TIP3    H234896   5.301   3.444   8.078
 3815TIP3   OH234897   4.321   3.030   8.125
 3815TIP3    H134898   4.350   3.001   8.212
 3815TIP3    H234899   4.399   3.008   8.069
 3816TIP3   OH234900   4.910   3.167   8.133
 3816TIP3    H134901   4.892   3.160   8.228
 3816TIP3    H234902   4.885   3.076   8.102
 3817TIP3   OH234903   4.444   2.864   8.358
 3817TIP3    H134904   4.421   2.796   8.423
 3817TIP3    H234905   4.479   2.810   8.283
 3818TIP3   OH234906   4.544   2.695   8.182
 3818TIP3    H134907   4.542   2.713   8.086
 3818TIP3    H234908   4.641   2.684   8.199
 3819TIP3   OH234909   5.481   2.896   8.152
 3819TIP3    H134910   5.459   2.867   8.060
 3819TIP3    H234911   5.480   2.995   8.141
 3820TIP3   OH234912   4.541   3.705   8.388
 3820TIP3    H134913   4.639   3.701   8.376
 3820TIP3    H234914   4.517   3.765   8.315
 3821TIP3   OH234915   3.858   3.205   8.275
 3821TIP3    H134916   3.956   3.205   8.281
 3821TIP3    H234917   3.846   3.152   8.194
 3822TIP3   OH234918   5.642   2.785   8.342
 3822TIP3    H134919   5.593   2.815   8.263
 3822TIP3    H234920   5.611   2.851   8.407
 3823TIP3   OH234921   5.437   2.509   8.194
 3823TIP3    H134922   5.444   2.569   8.119
 3823TIP3    H234923   5.402   2.428   8.152
 3824TIP3   OH234924   5.370   2.229   8.150
 3824TIP3    H134925   5.436   2.194   8.214
 3824TIP3    H234926   5.295   2.250   8.209
 3825TIP3   OH234927   5.572   2.125   8.296
 3825TIP3    H134928   5.608   2.059   8.232
 3825TIP3    H234929   5.655   2.161   8.336
 3826TIP3   OH234930   3.962   1.965   8.369
 3826TIP3    H134931   3.998   2.038   8.315
 3826TIP3    H234932   3.967   2.004   8.458
 3827TIP3   OH234933   4.089   2.172   8.226
 3827TIP3    H134934   4.132   2.108   8.166
 3827TIP3    H234935   4.157   2.172   8.298
 3828TIP3   OH234936   4.824   3.654   8.349
 3828TIP3    H134937   4.914   3.685   8.338
 3828TIP3    H234938   4.810   3.617   8.258
 3829TIP3   OH234939   4.048   3.649   8.172
 3829TIP3    H134940   4.027   3.693   8.257
 3829TIP3    H234941   4.117   3.587   8.200
 3830TIP3   OH234942   6.696   2.691   8.232
 3830TIP3    H134943   6.755   2.738   8.294
 3830TIP3    H234944   6.753   2.615   8.210
 3831TIP3   OH234945   6.918   2.766   8.382
 3831TIP3    H134946   6.956   2.798   8.466
 3831TIP3    H234947   6.976   2.809   8.314
 3832TIP3   OH234948   7.264   1.894   8.458
 3832TIP3    H134949   7.175   1.897   8.420
 3832TIP3    H234950   7.308   1.970   8.415
 3833TIP3   OH234951   7.429   3.376   8.218
 3833TIP3    H134952   7.438   3.460   8.268
 3833TIP3    H234953   7.499   3.326   8.263
 3834TIP3   OH234954   6.974   3.630   8.343
 3834TIP3    H134955   7.010   3.555   8.291
 3834TIP3    H234956   7.007   3.606   8.431
 3835TIP3   OH234957   7.106   2.870   8.244
 3835TIP3    H134958   7.084   2.864   8.148
 3835TIP3    H234959   7.197   2.905   8.239
 3836TIP3   OH234960   6.665   2.253   8.265
 3836TIP3    H134961   6.598   2.279   8.329
 3836TIP3    H234962   6.638   2.164   8.237
 3837TIP3   OH234963   6.305   2.281   8.162
 3837TIP3    H134964   6.251   2.246   8.236
 3837TIP3    H234965   6.241   2.338   8.114
 3838TIP3   OH234966   5.757   2.288   8.406
 3838TIP3    H134967   5.818   2.334   8.345
 3838TIP3    H234968   5.712   2.366   8.441
 3839TIP3   OH234969   6.225   2.556   8.299
 3839TIP3    H134970   6.175   2.516   8.226
 3839TIP3    H234971   6.296   2.601   8.249
 3840TIP3   OH234972   6.923   2.301   8.318
 3840TIP3    H134973   6.826   2.316   8.313
 3840TIP3    H234974   6.954   2.367   8.384
 3841TIP3   OH234975   6.998   2.516   8.469
 3841TIP3    H134976   7.093   2.517   8.489
 3841TIP3    H234977   6.990   2.588   8.403
 3842TIP3   OH234978   6.728   3.145   8.407
 3842TIP3    H134979   6.678   3.230   8.405
 3842TIP3    H234980   6.659   3.082   8.430
 3843TIP3   OH234981   7.468   2.531   8.427
 3843TIP3    H134982   7.413   2.507   8.348
 3843TIP3    H234983   7.498   2.621   8.400
 3844TIP3   OH234984   5.904   2.799   8.260
 3844TIP3    H134985   5.929   2.880   8.309
 3844TIP3    H234986   5.816   2.781   8.300
 3845TIP3   OH234987   7.102   3.216   8.300
 3845TIP3    H134988   7.121   3.215   8.395
 3845TIP3    H234989   7.007   3.191   8.299
 3846TIP3   OH234990   7.464   3.614   8.342
 3846TIP3    H134991   7.519   3.656   8.275
 3846TIP3    H234992   7.395   3.681   8.355
 3847TIP3   OH234993   6.467   3.316   8.135
 3847TIP3    H134994   6.449   3.258   8.060
 3847TIP3    H234995   6.413   3.272   8.204
 3848TIP3   OH234996   6.330   3.232   8.383
 3848TIP3    H134997   6.383   3.218   8.463
 3848TIP3    H234998   6.297   3.323   8.402
 3849TIP3   OH234999   5.976   2.987   8.430
 3849TIP3    H135000   5.928   2.926   8.489
 3849TIP3    H235001   6.065   2.984   8.471
 3850TIP3   OH235002   6.589   3.393   8.413
 3850TIP3    H135003   6.493   3.412   8.414
 3850TIP3    H235004   6.624   3.473   8.369
 3851TIP3   OH235005   6.322   3.482   8.473
 3851TIP3    H135006   6.331   3.555   8.408
 3851TIP3    H235007   6.321   3.532   8.556
 3852TIP3   OH235008   6.192   2.170   8.379
 3852TIP3    H135009   6.158   2.242   8.433
 3852TIP3    H235010   6.281   2.172   8.417
 3853TIP3   OH235011   6.023   3.246   8.303
 3853TIP3    H135012   6.076   3.262   8.382
 3853TIP3    H235013   6.074   3.174   8.262
 3854TIP3   OH235014   5.857   2.509   8.245
 3854TIP3    H135015   5.905   2.592   8.235
 3854TIP3    H235016   5.778   2.523   8.191
 3855TIP3   OH235017   6.662   3.513   8.141
 3855TIP3    H135018   6.609   3.430   8.142
 3855TIP3    H235019   6.741   3.485   8.091
 3856TIP3   OH235020   7.096   3.455   8.139
 3856TIP3    H135021   7.120   3.392   8.209
 3856TIP3    H235022   7.176   3.453   8.082
 3857TIP3   OH235023   6.207   3.025   8.137
 3857TIP3    H135024   6.240   3.004   8.226
 3857TIP3    H235025   6.285   3.004   8.082
 3858TIP3   OH235026   6.790   3.167   8.135
 3858TIP3    H135027   6.777   3.161   8.232
 3858TIP3    H235028   6.760   3.076   8.110
 3859TIP3   OH235029   6.327   2.861   8.362
 3859TIP3    H135030   6.291   2.795   8.423
 3859TIP3    H235031   6.360   2.803   8.289
 3860TIP3   OH235032   6.431   2.680   8.173
 3860TIP3    H135033   6.429   2.702   8.077
 3860TIP3    H235034   6.527   2.679   8.192
 3861TIP3   OH235035   7.359   2.915   8.157
 3861TIP3    H135036   7.333   2.882   8.068
 3861TIP3    H235037   7.354   3.013   8.145
 3862TIP3   OH235038   6.435   3.705   8.386
 3862TIP3    H135039   6.532   3.715   8.392
 3862TIP3    H235040   6.415   3.764   8.311
 3863TIP3   OH235041   5.750   3.205   8.293
 3863TIP3    H135042   5.848   3.202   8.292
 3863TIP3    H235043   5.727   3.162   8.209
 3864TIP3   OH235044   7.521   2.799   8.355
 3864TIP3    H135045   7.490   2.834   8.269
 3864TIP3    H235046   7.560   2.879   8.395
 3865TIP3   OH235047   7.324   2.482   8.203
 3865TIP3    H135048   7.330   2.541   8.127
 3865TIP3    H235049   7.286   2.404   8.158
 3866TIP3   OH235050   7.250   2.215   8.132
 3866TIP3    H135051   7.306   2.176   8.200
 3866TIP3    H235052   7.173   2.240   8.185
 3867TIP3   OH235053   7.429   2.080   8.335
 3867TIP3    H135054   7.456   2.021   8.260
 3867TIP3    H235055   7.513   2.122   8.360
 3868TIP3   OH235056   5.836   1.974   8.375
 3868TIP3    H135057   5.841   2.046   8.310
 3868TIP3    H235058   5.840   2.026   8.457
 3869TIP3   OH235059   5.961   2.180   8.231
 3869TIP3    H135060   6.015   2.118   8.178
 3869TIP3    H235061   6.012   2.178   8.314
 3870TIP3   OH235062   6.706   3.665   8.348
 3870TIP3    H135063   6.803   3.673   8.346
 3870TIP3    H235064   6.695   3.625   8.258
 3871TIP3   OH235065   5.927   3.637   8.176
 3871TIP3    H135066   5.903   3.678   8.262
 3871TIP3    H235067   5.994   3.572   8.205
 3872TIP3   OH235068   7.602   2.288   8.429
 3872TIP3    H135069   7.609   2.302   8.335
 3872TIP3    H235070   7.550   2.368   8.451
 3873TIP3   OH235071   7.608   3.178   8.309
 3873TIP3    H135072   7.707   3.179   8.307
 3873TIP3    H235073   7.589   3.144   8.220
 3874TIP3   OH235074   1.032   4.577   8.253
 3874TIP3    H135075   1.108   4.617   8.300
 3874TIP3    H235076   1.085   4.507   8.208
 3875TIP3   OH235077   1.272   4.646   8.354
 3875TIP3    H135078   1.242   4.701   8.428
 3875TIP3    H235079   1.333   4.705   8.305
 3876TIP3   OH235080   1.667   3.818   8.449
 3876TIP3    H135081   1.588   3.800   8.396
 3876TIP3    H235082   1.699   3.902   8.407
 3877TIP3   OH235083   1.763   5.271   8.224
 3877TIP3    H135084   1.795   5.356   8.257
 3877TIP3    H235085   1.829   5.214   8.267
 3878TIP3   OH235086   1.362   5.496   8.328
 3878TIP3    H135087   1.379   5.434   8.254
 3878TIP3    H235088   1.403   5.445   8.402
 3879TIP3   OH235089   1.463   4.792   8.250
 3879TIP3    H135090   1.430   4.781   8.158
 3879TIP3    H235091   1.559   4.793   8.232
 3880TIP3   OH235092   1.013   4.117   8.290
 3880TIP3    H135093   0.927   4.137   8.330
 3880TIP3    H235094   0.992   4.047   8.226
 3881TIP3   OH235095   0.671   4.177   8.160
 3881TIP3    H135096   0.607   4.132   8.219
 3881TIP3    H235097   0.620   4.255   8.133
 3882TIP3   OH235098   0.178   4.229   8.436
 3882TIP3    H135099   0.181   4.278   8.350
 3882TIP3    H235100   0.084   4.205   8.445
 3883TIP3   OH235101   0.559   4.414   8.309
 3883TIP3    H135102   0.507   4.395   8.228
 3883TIP3    H235103   0.637   4.456   8.269
 3884TIP3   OH235104   1.267   4.224   8.290
 3884TIP3    H135105   1.175   4.208   8.320
 3884TIP3    H235106   1.305   4.275   8.366
 3885TIP3   OH235107   1.349   4.407   8.466
 3885TIP3    H135108   1.431   4.414   8.520
 3885TIP3    H235109   1.350   4.487   8.410
 3886TIP3   OH235110   1.109   5.025   8.408
 3886TIP3    H135111   1.058   5.108   8.401
 3886TIP3    H235112   1.060   4.977   8.476
 3887TIP3   OH235113   1.831   4.400   8.436
 3887TIP3    H135114   1.752   4.375   8.383
 3887TIP3    H235115   1.855   4.485   8.395
 3888TIP3   OH235116   0.156   4.678   8.277
 3888TIP3    H135117   0.227   4.724   8.328
 3888TIP3    H235118   0.090   4.678   8.348
 3889TIP3   OH235119   1.444   5.092   8.296
 3889TIP3    H135120   1.432   5.117   8.390
 3889TIP3    H235121   1.357   5.054   8.275
 3890TIP3   OH235122   1.826   5.520   8.318
 3890TIP3    H135123   1.883   5.549   8.246
 3890TIP3    H235124   1.743   5.567   8.299
 3891TIP3   OH235125   0.815   5.199   8.126
 3891TIP3    H135126   0.794   5.133   8.058
 3891TIP3    H235127   0.774   5.157   8.205
 3892TIP3   OH235128   0.692   5.134   8.360
 3892TIP3    H135129   0.677   5.068   8.432
 3892TIP3    H235130   0.678   5.215   8.413
 3893TIP3   OH235131   0.299   4.832   8.443
 3893TIP3    H135132   0.281   4.860   8.534
 3893TIP3    H235133   0.337   4.912   8.404
 3894TIP3   OH235134   0.938   5.276   8.399
 3894TIP3    H135135   0.842   5.288   8.416
 3894TIP3    H235136   0.963   5.363   8.364
 3895TIP3   OH235137   0.670   5.371   8.493
 3895TIP3    H135138   0.698   5.444   8.432
 3895TIP3    H235139   0.610   5.422   8.550
 3896TIP3   OH235140   0.508   4.070   8.356
 3896TIP3    H135141   0.500   4.137   8.426
 3896TIP3    H235142   0.597   4.036   8.375
 3897TIP3   OH235143   0.429   5.071   8.285
 3897TIP3    H135144   0.512   5.096   8.331
 3897TIP3    H235145   0.469   5.018   8.211
 3898TIP3   OH235146   0.187   4.396   8.230
 3898TIP3    H135147   0.213   4.486   8.255
 3898TIP3    H235148   0.107   4.413   8.178
 3899TIP3   OH235149   1.005   5.392   8.132
 3899TIP3    H135150   0.947   5.312   8.138
 3899TIP3    H235151   1.085   5.355   8.091
 3900TIP3   OH235152   1.447   5.321   8.127
 3900TIP3    H135153   1.471   5.251   8.192
 3900TIP3    H235154   1.532   5.333   8.080
 3901TIP3   OH235155   0.558   4.906   8.117
 3901TIP3    H135156   0.600   4.880   8.201
 3901TIP3    H235157   0.632   4.891   8.054
 3902TIP3   OH235158   1.142   5.057   8.138
 3902TIP3    H135159   1.132   5.041   8.233
 3902TIP3    H235160   1.120   4.967   8.102
 3903TIP3   OH235161   0.659   4.746   8.355
 3903TIP3    H135162   0.656   4.684   8.428
 3903TIP3    H235163   0.696   4.688   8.283
 3904TIP3   OH235164   0.768   4.589   8.175
 3904TIP3    H135165   0.762   4.617   8.081
 3904TIP3    H235166   0.863   4.564   8.182
 3905TIP3   OH235167   1.720   4.789   8.147
 3905TIP3    H135168   1.702   4.767   8.053
 3905TIP3    H235169   1.723   4.888   8.143
 3906TIP3   OH235170   0.776   5.594   8.387
 3906TIP3    H135171   0.873   5.604   8.386
 3906TIP3    H235172   0.755   5.649   8.310
 3907TIP3   OH235173   0.165   5.077   8.273
 3907TIP3    H135174   0.264   5.086   8.276
 3907TIP3    H235175   0.160   5.009   8.203
 3908TIP3   OH235176   1.872   4.670   8.340
 3908TIP3    H135177   1.820   4.699   8.262
 3908TIP3    H235178   1.822   4.717   8.411
 3909TIP3   OH235179   1.645   4.401   8.211
 3909TIP3    H135180   1.681   4.449   8.134
 3909TIP3    H235181   1.621   4.315   8.171
 3910TIP3   OH235182   1.596   4.133   8.165
 3910TIP3    H135183   1.651   4.095   8.237
 3910TIP3    H235184   1.511   4.140   8.211
 3911TIP3   OH235185   1.796   4.005   8.303
 3911TIP3    H135186   1.827   3.951   8.226
 3911TIP3    H235187   1.879   4.048   8.335
 3912TIP3   OH235188   0.178   3.822   8.394
 3912TIP3    H135189   0.208   3.879   8.320
 3912TIP3    H235190   0.169   3.884   8.468
 3913TIP3   OH235191   0.282   4.002   8.227
 3913TIP3    H135192   0.346   3.959   8.166
 3913TIP3    H235193   0.345   4.032   8.297
 3914TIP3   OH235194   1.053   5.546   8.344
 3914TIP3    H135195   1.140   5.575   8.316
 3914TIP3    H235196   1.023   5.505   8.260
 3915TIP3   OH235197   0.329   5.543   8.203
 3915TIP3    H135198   0.282   5.562   8.287
 3915TIP3    H235199   0.384   5.467   8.227
 3916TIP3   OH235200   2.958   4.535   8.280
 3916TIP3    H135201   3.019   4.591   8.333
 3916TIP3    H235202   3.026   4.499   8.219
 3917TIP3   OH235203   3.183   4.651   8.390
 3917TIP3    H135204   3.212   4.667   8.482
 3917TIP3    H235205   3.250   4.702   8.338
 3918TIP3   OH235206   3.551   3.819   8.451
 3918TIP3    H135207   3.467   3.809   8.405
 3918TIP3    H235208   3.589   3.896   8.404
 3919TIP3   OH235209   3.671   5.265   8.214
 3919TIP3    H135210   3.685   5.356   8.248
 3919TIP3    H235211   3.741   5.218   8.264
 3920TIP3   OH235212   3.237   5.511   8.332
 3920TIP3    H135213   3.267   5.443   8.268
 3920TIP3    H235214   3.258   5.465   8.415
 3921TIP3   OH235215   3.343   4.803   8.252
 3921TIP3    H135216   3.306   4.826   8.164
 3921TIP3    H235217   3.437   4.792   8.229
 3922TIP3   OH235218   2.866   4.155   8.286
 3922TIP3    H135219   2.819   4.128   8.366
 3922TIP3    H235220   2.881   4.069   8.243
 3923TIP3   OH235221   2.536   4.150   8.156
 3923TIP3    H135222   2.488   4.119   8.237
 3923TIP3    H235223   2.462   4.189   8.107
 3924TIP3   OH235224   1.985   4.167   8.415
 3924TIP3    H135225   2.060   4.195   8.359
 3924TIP3    H235226   1.936   4.252   8.422
 3925TIP3   OH235227   2.416   4.432   8.305
 3925TIP3    H135228   2.341   4.386   8.262
 3925TIP3    H235229   2.442   4.488   8.231
 3926TIP3   OH235230   3.165   4.215   8.283
 3926TIP3    H135231   3.073   4.225   8.313
 3926TIP3    H235232   3.211   4.260   8.358
 3927TIP3   OH235233   3.230   4.395   8.468
 3927TIP3    H135234   3.308   4.398   8.528
 3927TIP3    H235235   3.242   4.474   8.412
 3928TIP3   OH235236   2.968   5.052   8.401
 3928TIP3    H135237   2.912   5.132   8.406
 3928TIP3    H235238   2.908   4.983   8.433
 3929TIP3   OH235239   3.724   4.400   8.441
 3929TIP3    H135240   3.663   4.358   8.377
 3929TIP3    H235241   3.731   4.490   8.403
 3930TIP3   OH235242   2.138   4.695   8.260
 3930TIP3    H135243   2.157   4.779   8.308
 3930TIP3    H235244   2.043   4.684   8.286
 3931TIP3   OH235245   3.321   5.087   8.306
 3931TIP3    H135246   3.304   5.118   8.396
 3931TIP3    H235247   3.233   5.053   8.283
 3932TIP3   OH235248   3.707   5.508   8.315
 3932TIP3    H135249   3.786   5.564   8.318
 3932TIP3    H235250   3.644   5.566   8.362
 3933TIP3   OH235251   2.709   5.188   8.116
 3933TIP3    H135252   2.662   5.139   8.047
 3933TIP3    H235253   2.662   5.158   8.196
 3934TIP3   OH235254   2.569   5.118   8.384
 3934TIP3    H135255   2.594   5.094   8.475
 3934TIP3    H235256   2.560   5.214   8.398
 3935TIP3   OH235257   2.199   4.881   8.436
 3935TIP3    H135258   2.160   4.806   8.487
 3935TIP3    H235259   2.286   4.887   8.481
 3936TIP3   OH235260   2.822   5.283   8.419
 3936TIP3    H135261   2.731   5.321   8.421
 3936TIP3    H235262   2.871   5.357   8.378
 3937TIP3   OH235263   2.563   5.365   8.480
 3937TIP3    H135264   2.570   5.430   8.407
 3937TIP3    H235265   2.568   5.424   8.557
 3938TIP3   OH235266   2.416   4.071   8.384
 3938TIP3    H135267   2.381   4.136   8.446
 3938TIP3    H235268   2.506   4.070   8.419
 3939TIP3   OH235269   2.256   5.139   8.290
 3939TIP3    H135270   2.311   5.157   8.368
 3939TIP3    H235271   2.304   5.063   8.253
 3940TIP3   OH235272   2.100   4.394   8.248
 3940TIP3    H135273   2.125   4.487   8.267
 3940TIP3    H235274   2.024   4.407   8.190
 3941TIP3   OH235275   2.894   5.389   8.143
 3941TIP3    H135276   2.839   5.307   8.134
 3941TIP3    H235277   2.975   5.360   8.095
 3942TIP3   OH235278   3.335   5.328   8.135
 3942TIP3    H135279   3.369   5.265   8.201
 3942TIP3    H235280   3.411   5.337   8.074
 3943TIP3   OH235281   2.435   4.942   8.136
 3943TIP3    H135282   2.393   4.870   8.186
 3943TIP3    H235283   2.528   4.918   8.144
 3944TIP3   OH235284   3.024   5.057   8.132
 3944TIP3    H135285   3.003   5.054   8.229
 3944TIP3    H235286   2.999   4.965   8.106
 3945TIP3   OH235287   2.553   4.751   8.354
 3945TIP3    H135288   2.513   4.719   8.437
 3945TIP3    H235289   2.553   4.667   8.305
 3946TIP3   OH235290   2.671   4.569   8.168
 3946TIP3    H135291   2.616   4.572   8.086
 3946TIP3    H235292   2.728   4.646   8.148
 3947TIP3   OH235293   3.606   4.793   8.155
 3947TIP3    H135294   3.596   4.769   8.060
 3947TIP3    H235295   3.616   4.891   8.149
 3948TIP3   OH235296   2.676   5.583   8.377
 3948TIP3    H135297   2.771   5.585   8.352
 3948TIP3    H235298   2.642   5.650   8.316
 3949TIP3   OH235299   1.982   5.087   8.277
 3949TIP3    H135300   2.080   5.100   8.281
 3949TIP3    H235301   1.973   5.023   8.204
 3950TIP3   OH235302   3.754   4.673   8.348
 3950TIP3    H135303   3.706   4.703   8.267
 3950TIP3    H235304   3.729   4.741   8.412
 3951TIP3   OH235305   3.546   4.404   8.200
 3951TIP3    H135306   3.568   4.450   8.119
 3951TIP3    H235307   3.516   4.316   8.166
 3952TIP3   OH235308   3.476   4.143   8.171
 3952TIP3    H135309   3.542   4.094   8.225
 3952TIP3    H235310   3.404   4.156   8.236
 3953TIP3   OH235311   3.683   3.999   8.300
 3953TIP3    H135312   3.726   3.943   8.229
 3953TIP3    H235313   3.763   4.041   8.339
 3954TIP3   OH235314   2.068   3.843   8.372
 3954TIP3    H135315   2.048   3.920   8.316
 3954TIP3    H235316   2.108   3.888   8.449
 3955TIP3   OH235317   2.189   4.060   8.239
 3955TIP3    H135318   2.241   3.997   8.184
 3955TIP3    H235319   2.246   4.061   8.318
 3956TIP3   OH235320   2.958   5.529   8.352
 3956TIP3    H135321   3.048   5.560   8.336
 3956TIP3    H235322   2.935   5.492   8.264
 3957TIP3   OH235323   2.168   5.515   8.198
 3957TIP3    H135324   2.150   5.508   8.293
 3957TIP3    H235325   2.242   5.451   8.188
 3958TIP3   OH235326   4.801   4.591   8.255
 3958TIP3    H135327   4.865   4.629   8.318
 3958TIP3    H235328   4.852   4.513   8.227
 3959TIP3   OH235329   5.051   4.647   8.369
 3959TIP3    H135330   5.085   4.667   8.458
 3959TIP3    H235331   5.105   4.706   8.310
 3960TIP3   OH235332   5.438   3.819   8.455
 3960TIP3    H135333   5.357   3.798   8.406
 3960TIP3    H235334   5.471   3.898   8.407
 3961TIP3   OH235335   5.571   5.267   8.198
 3961TIP3    H135336   5.578   5.359   8.230
 3961TIP3    H235337   5.637   5.225   8.256
 3962TIP3   OH235338   5.117   5.524   8.342
 3962TIP3    H135339   5.144   5.453   8.283
 3962TIP3    H235340   5.157   5.495   8.426
 3963TIP3   OH235341   5.223   4.805   8.248
 3963TIP3    H135342   5.200   4.813   8.153
 3963TIP3    H235343   5.320   4.800   8.238
 3964TIP3   OH235344   4.774   4.126   8.276
 3964TIP3    H135345   4.696   4.143   8.330
 3964TIP3    H235346   4.752   4.046   8.229
 3965TIP3   OH235347   4.407   4.185   8.164
 3965TIP3    H135348   4.355   4.137   8.232
 3965TIP3    H235349   4.347   4.260   8.143
 3966TIP3   OH235350   3.863   4.168   8.405
 3966TIP3    H135351   3.940   4.202   8.357
 3966TIP3    H235352   3.820   4.252   8.430
 3967TIP3   OH235353   4.323   4.432   8.311
 3967TIP3    H135354   4.263   4.403   8.240
 3967TIP3    H235355   4.400   4.464   8.259
 3968TIP3   OH235356   5.029   4.214   8.295
 3968TIP3    H135357   4.935   4.200   8.321
 3968TIP3    H235358   5.066   4.264   8.373
 3969TIP3   OH235359   5.114   4.400   8.461
 3969TIP3    H135360   5.209   4.407   8.482
 3969TIP3    H235361   5.099   4.475   8.401
 3970TIP3   OH235362   4.842   5.029   8.417
 3970TIP3    H135363   4.794   5.114   8.413
 3970TIP3    H235364   4.784   4.972   8.469
 3971TIP3   OH235365   5.595   4.401   8.445
 3971TIP3    H135366   5.541   4.357   8.376
 3971TIP3    H235367   5.604   4.489   8.403
 3972TIP3   OH235368   4.021   4.688   8.254
 3972TIP3    H135369   4.053   4.761   8.312
 3972TIP3    H235370   3.930   4.677   8.286
 3973TIP3   OH235371   5.193   5.085   8.291
 3973TIP3    H135372   5.158   5.103   8.379
 3973TIP3    H235373   5.114   5.048   8.245
 3974TIP3   OH235374   5.596   5.518   8.299
 3974TIP3    H135375   5.675   5.568   8.324
 3974TIP3    H235376   5.524   5.574   8.336
 3975TIP3   OH235377   4.593   5.202   8.109
 3975TIP3    H135378   4.601   5.147   8.028
 3975TIP3    H235379   4.539   5.146   8.167
 3976TIP3   OH235380   4.440   5.117   8.379
 3976TIP3    H135381   4.465   5.095   8.469
 3976TIP3    H235382   4.444   5.214   8.385
 3977TIP3   OH235383   4.095   4.871   8.424
 3977TIP3    H135384   4.110   4.797   8.484
 3977TIP3    H235385   4.185   4.906   8.413
 3978TIP3   OH235386   4.683   5.300   8.405
 3978TIP3    H135387   4.599   5.349   8.407
 3978TIP3    H235388   4.724   5.335   8.323
 3979TIP3   OH235389   4.420   5.371   8.473
 3979TIP3    H135390   4.406   5.433   8.400
 3979TIP3    H235391   4.452   5.431   8.541
 3980TIP3   OH235392   4.286   4.063   8.378
 3980TIP3    H135393   4.316   4.122   8.450
 3980TIP3    H235394   4.362   4.004   8.367
 3981TIP3   OH235395   4.141   5.129   8.298
 3981TIP3    H135396   4.214   5.171   8.346
 3981TIP3    H235397   4.194   5.073   8.239
 3982TIP3   OH235398   3.978   4.389   8.246
 3982TIP3    H135399   4.015   4.479   8.243
 3982TIP3    H235400   3.891   4.399   8.207
 3983TIP3   OH235401   4.795   5.379   8.161
 3983TIP3    H135402   4.734   5.306   8.133
 3983TIP3    H235403   4.874   5.357   8.107
 3984TIP3   OH235404   5.236   5.330   8.158
 3984TIP3    H135405   5.254   5.256   8.219
 3984TIP3    H235406   5.314   5.328   8.098
 3985TIP3   OH235407   4.325   4.942   8.125
 3985TIP3    H135408   4.339   4.879   8.197
 3985TIP3    H235409   4.412   4.936   8.079
 3986TIP3   OH235410   4.922   5.035   8.151
 3986TIP3    H135411   4.898   5.021   8.245
 3986TIP3    H235412   4.889   4.952   8.109
 3987TIP3   OH235413   4.440   4.753   8.356
 3987TIP3    H135414   4.430   4.684   8.423
 3987TIP3    H235415   4.478   4.703   8.281
 3988TIP3   OH235416   4.546   4.565   8.176
 3988TIP3    H135417   4.546   4.588   8.080
 3988TIP3    H235418   4.642   4.566   8.197
 3989TIP3   OH235419   5.479   4.786   8.157
 3989TIP3    H135420   5.459   4.755   8.065
 3989TIP3    H235421   5.484   4.884   8.143
 3990TIP3   OH235422   4.545   5.605   8.389
 3990TIP3    H135423   4.643   5.614   8.385
 3990TIP3    H235424   4.523   5.664   8.314
 3991TIP3   OH235425   3.857   5.081   8.297
 3991TIP3    H135426   3.955   5.079   8.295
 3991TIP3    H235427   3.834   5.041   8.210
 3992TIP3   OH235428   5.637   4.674   8.350
 3992TIP3    H135429   5.581   4.703   8.273
 3992TIP3    H235430   5.623   4.747   8.413
 3993TIP3   OH235431   5.433   4.397   8.189
 3993TIP3    H135432   5.435   4.439   8.103
 3993TIP3    H235433   5.402   4.307   8.165
 3994TIP3   OH235434   5.364   4.135   8.169
 3994TIP3    H135435   5.426   4.093   8.233
 3994TIP3    H235436   5.284   4.140   8.223
 3995TIP3   OH235437   5.566   4.003   8.305
 3995TIP3    H135438   5.593   3.946   8.228
 3995TIP3    H235439   5.652   4.041   8.332
 3996TIP3   OH235440   3.958   3.852   8.376
 3996TIP3    H135441   3.964   3.921   8.307
 3996TIP3    H235442   3.973   3.906   8.455
 3997TIP3   OH235443   4.068   4.046   8.225
 3997TIP3    H135444   4.131   3.994   8.171
 3997TIP3    H235445   4.122   4.058   8.306
 3998TIP3   OH235446   4.799   5.599   8.315
 3998TIP3    H135447   4.885   5.638   8.294
 3998TIP3    H235448   4.805   5.518   8.259
 3999TIP3   OH235449   4.102   5.542   8.190
 3999TIP3    H135450   4.063   5.562   8.277
 3999TIP3    H235451   4.160   5.467   8.210
 4000TIP3   OH235452   6.697   4.531   8.255
 4000TIP3    H135453   6.769   4.564   8.313
 4000TIP3    H235454   6.747   4.455   8.217
 4001TIP3   OH235455   6.922   4.649   8.361
 4001TIP3    H135456   6.926   4.692   8.448
 4001TIP3    H235457   6.981   4.707   8.308
 4002TIP3   OH235458   7.284   3.799   8.454
 4002TIP3    H135459   7.194   3.800   8.420
 4002TIP3    H235460   7.321   3.879   8.411
 4003TIP3   OH235461   7.422   5.264   8.226
 4003TIP3    H135462   7.440   5.344   8.278
 4003TIP3    H235463   7.491   5.205   8.264
 4004TIP3   OH235464   6.968   5.501   8.336
 4004TIP3    H135465   7.001   5.436   8.270
 4004TIP3    H235466   7.017   5.471   8.415
 4005TIP3   OH235467   7.092   4.821   8.254
 4005TIP3    H135468   7.074   4.836   8.159
 4005TIP3    H235469   7.189   4.806   8.251
 4006TIP3   OH235470   6.654   4.133   8.274
 4006TIP3    H135471   6.583   4.160   8.333
 4006TIP3    H235472   6.616   4.055   8.231
 4007TIP3   OH235473   6.291   4.161   8.156
 4007TIP3    H135474   6.235   4.131   8.232
 4007TIP3    H235475   6.240   4.239   8.126
 4008TIP3   OH235476   5.750   4.168   8.404
 4008TIP3    H135477   5.820   4.214   8.353
 4008TIP3    H235478   5.700   4.245   8.437
 4009TIP3   OH235479   6.227   4.443   8.297
 4009TIP3    H135480   6.177   4.403   8.224
 4009TIP3    H235481   6.299   4.488   8.248
 4010TIP3   OH235482   6.913   4.206   8.301
 4010TIP3    H135483   6.817   4.201   8.322
 4010TIP3    H235484   6.951   4.266   8.369
 4011TIP3   OH235485   6.995   4.403   8.463
 4011TIP3    H135486   7.077   4.410   8.515
 4011TIP3    H235487   6.997   4.482   8.406
 4012TIP3   OH235488   6.725   5.047   8.402
 4012TIP3    H135489   6.675   5.131   8.413
 4012TIP3    H235490   6.669   4.984   8.450
 4013TIP3   OH235491   7.455   4.422   8.439
 4013TIP3    H135492   7.398   4.396   8.363
 4013TIP3    H235493   7.493   4.506   8.404
 4014TIP3   OH235494   5.893   4.687   8.253
 4014TIP3    H135495   5.926   4.757   8.314
 4014TIP3    H235496   5.800   4.678   8.284
 4015TIP3   OH235497   7.110   5.116   8.306
 4015TIP3    H135498   7.121   5.091   8.399
 4015TIP3    H235499   7.019   5.088   8.289
 4016TIP3   OH235500   7.474   5.495   8.380
 4016TIP3    H135501   7.539   5.547   8.331
 4016TIP3    H235502   7.396   5.554   8.379
 4017TIP3   OH235503   6.467   5.192   8.127
 4017TIP3    H135504   6.423   5.142   8.056
 4017TIP3    H235505   6.426   5.152   8.208
 4018TIP3   OH235506   6.345   5.136   8.364
 4018TIP3    H135507   6.349   5.075   8.438
 4018TIP3    H235508   6.346   5.221   8.413
 4019TIP3   OH235509   5.977   4.866   8.425
 4019TIP3    H135510   5.970   4.812   8.505
 4019TIP3    H235511   6.070   4.893   8.422
 4020TIP3   OH235512   6.581   5.288   8.423
 4020TIP3    H135513   6.492   5.329   8.426
 4020TIP3    H235514   6.631   5.357   8.377
 4021TIP3   OH235515   6.326   5.375   8.486
 4021TIP3    H135516   6.300   5.435   8.414
 4021TIP3    H235517   6.344   5.437   8.557
 4022TIP3   OH235518   6.170   4.069   8.377
 4022TIP3    H135519   6.201   4.122   8.455
 4022TIP3    H235520   6.246   4.008   8.366
 4023TIP3   OH235521   6.036   5.130   8.281
 4023TIP3    H135522   6.093   5.173   8.345
 4023TIP3    H235523   6.102   5.078   8.232
 4024TIP3   OH235524   5.853   4.387   8.246
 4024TIP3    H135525   5.896   4.474   8.239
 4024TIP3    H235526   5.774   4.399   8.191
 4025TIP3   OH235527   6.659   5.400   8.141
 4025TIP3    H135528   6.608   5.316   8.133
 4025TIP3    H235529   6.742   5.374   8.096
 4026TIP3   OH235530   7.088   5.339   8.138
 4026TIP3    H135531   7.115   5.284   8.215
 4026TIP3    H235532   7.169   5.334   8.082
 4027TIP3   OH235533   6.206   4.937   8.121
 4027TIP3    H135534   6.245   4.887   8.195
 4027TIP3    H235535   6.275   4.921   8.052
 4028TIP3   OH235536   6.797   5.053   8.134
 4028TIP3    H135537   6.777   5.055   8.230
 4028TIP3    H235538   6.756   4.967   8.107
 4029TIP3   OH235539   6.327   4.748   8.346
 4029TIP3    H135540   6.304   4.678   8.409
 4029TIP3    H235541   6.361   4.694   8.271
 4030TIP3   OH235542   6.438   4.573   8.178
 4030TIP3    H135543   6.432   4.599   8.083
 4030TIP3    H235544   6.535   4.563   8.190
 4031TIP3   OH235545   7.352   4.801   8.162
 4031TIP3    H135546   7.330   4.759   8.076
 4031TIP3    H235547   7.344   4.898   8.141
 4032TIP3   OH235548   6.441   5.615   8.392
 4032TIP3    H135549   6.537   5.618   8.407
 4032TIP3    H235550   6.438   5.652   8.302
 4033TIP3   OH235551   5.755   5.079   8.291
 4033TIP3    H135552   5.853   5.076   8.286
 4033TIP3    H235553   5.731   5.030   8.210
 4034TIP3   OH235554   7.521   4.680   8.348
 4034TIP3    H135555   7.491   4.719   8.264
 4034TIP3    H235556   7.554   4.757   8.397
 4035TIP3   OH235557   7.324   4.373   8.200
 4035TIP3    H135558   7.336   4.420   8.116
 4035TIP3    H235559   7.285   4.290   8.165
 4036TIP3   OH235560   7.238   4.126   8.133
 4036TIP3    H135561   7.283   4.089   8.212
 4036TIP3    H235562   7.147   4.123   8.162
 4037TIP3   OH235563   7.432   3.993   8.317
 4037TIP3    H135564   7.463   3.933   8.247
 4037TIP3    H235565   7.514   4.033   8.350
 4038TIP3   OH235566   5.831   3.852   8.378
 4038TIP3    H135567   5.840   3.919   8.307
 4038TIP3    H235568   5.854   3.906   8.455
 4039TIP3   OH235569   5.952   4.029   8.219
 4039TIP3    H135570   6.015   3.977   8.164
 4039TIP3    H235571   6.007   4.046   8.299
 4040TIP3   OH235572   6.704   5.545   8.355
 4040TIP3    H135573   6.801   5.555   8.347
 4040TIP3    H235574   6.686   5.505   8.267
 4041TIP3   OH235575   5.931   5.534   8.182
 4041TIP3    H135576   5.904   5.576   8.266
 4041TIP3    H235577   5.997   5.470   8.212
 4042TIP3   OH235578   7.606   4.180   8.418
 4042TIP3    H135579   7.621   4.214   8.329
 4042TIP3    H235580   7.549   4.253   8.452
 4043TIP3   OH235581   7.609   5.062   8.311
 4043TIP3    H135582   7.707   5.076   8.312
 4043TIP3    H235583   7.602   5.022   8.224
 4044TIP3   OH235584   1.037   6.473   8.255
 4044TIP3    H135585   1.110   6.503   8.314
 4044TIP3    H235586   1.086   6.407   8.202
 4045TIP3   OH235587   1.274   6.536   8.367
 4045TIP3    H135588   1.313   6.556   8.454
 4045TIP3    H235589   1.331   6.589   8.307
 4046TIP3   OH235590   1.638   5.701   8.448
 4046TIP3    H135591   1.545   5.682   8.424
 4046TIP3    H235592   1.660   5.784   8.401
 4047TIP3   OH235593   1.795   7.134   8.227
 4047TIP3    H135594   1.818   7.209   8.285
 4047TIP3    H235595   1.856   7.066   8.263
 4048TIP3   OH235596   1.297   7.349   8.345
 4048TIP3    H135597   1.322   7.295   8.268
 4048TIP3    H235598   1.370   7.330   8.407
 4049TIP3   OH235599   1.458   6.680   8.251
 4049TIP3    H135600   1.431   6.707   8.160
 4049TIP3    H235601   1.555   6.677   8.237
 4050TIP3   OH235602   1.006   6.007   8.277
 4050TIP3    H135603   0.918   6.029   8.308
 4050TIP3    H235604   0.987   5.928   8.224
 4051TIP3   OH235605   0.669   6.047   8.161
 4051TIP3    H135606   0.602   6.013   8.225
 4051TIP3    H235607   0.619   6.116   8.115
 4052TIP3   OH235608   0.203   6.101   8.395
 4052TIP3    H135609   0.210   6.164   8.320
 4052TIP3    H235610   0.107   6.094   8.408
 4053TIP3   OH235611   0.574   6.292   8.325
 4053TIP3    H135612   0.515   6.259   8.255
 4053TIP3    H235613   0.630   6.350   8.270
 4054TIP3   OH235614   1.272   6.101   8.278
 4054TIP3    H135615   1.176   6.097   8.297
 4054TIP3    H235616   1.307   6.143   8.359
 4055TIP3   OH235617   1.324   6.287   8.463
 4055TIP3    H135618   1.421   6.293   8.459
 4055TIP3    H235619   1.297   6.351   8.393
 4056TIP3   OH235620   1.092   6.922   8.408
 4056TIP3    H135621   1.038   7.003   8.405
 4056TIP3    H235622   1.028   6.858   8.441
 4057TIP3   OH235623   1.830   6.269   8.456
 4057TIP3    H135624   1.787   6.236   8.373
 4057TIP3    H235625   1.847   6.361   8.424
 4058TIP3   OH235626   0.166   6.572   8.278
 4058TIP3    H135627   0.236   6.627   8.324
 4058TIP3    H235628   0.098   6.577   8.346
 4059TIP3   OH235629   1.446   6.971   8.301
 4059TIP3    H135630   1.440   7.012   8.389
 4059TIP3    H235631   1.356   6.938   8.288
 4060TIP3   OH235632   1.827   7.366   8.365
 4060TIP3    H135633   1.890   7.422   8.317
 4060TIP3    H235634   1.740   7.409   8.346
 4061TIP3   OH235635   0.825   7.080   8.126
 4061TIP3    H135636   0.803   7.020   8.054
 4061TIP3    H235637   0.783   7.035   8.202
 4062TIP3   OH235638   0.678   7.010   8.384
 4062TIP3    H135639   0.686   6.964   8.468
 4062TIP3    H235640   0.683   7.103   8.415
 4063TIP3   OH235641   0.305   6.726   8.438
 4063TIP3    H135642   0.299   6.747   8.532
 4063TIP3    H235643   0.375   6.786   8.408
 4064TIP3   OH235644   0.918   7.181   8.398
 4064TIP3    H135645   0.835   7.228   8.421
 4064TIP3    H235646   0.950   7.231   8.321
 4065TIP3   OH235647   0.680   7.287   8.472
 4065TIP3    H135648   0.670   7.362   8.409
 4065TIP3    H235649   0.686   7.337   8.555
 4066TIP3   OH235650   0.512   5.948   8.362
 4066TIP3    H135651   0.495   6.011   8.434
 4066TIP3    H235652   0.603   5.916   8.378
 4067TIP3   OH235653   0.424   6.995   8.295
 4067TIP3    H135654   0.501   7.041   8.333
 4067TIP3    H235655   0.472   6.932   8.237
 4068TIP3   OH235656   0.184   6.302   8.223
 4068TIP3    H135657   0.199   6.396   8.246
 4068TIP3    H235658   0.097   6.307   8.181
 4069TIP3   OH235659   1.018   7.262   8.160
 4069TIP3    H135660   0.964   7.179   8.148
 4069TIP3    H235661   1.102   7.235   8.118
 4070TIP3   OH235662   1.454   7.207   8.141
 4070TIP3    H135663   1.490   7.143   8.205
 4070TIP3    H235664   1.531   7.215   8.079
 4071TIP3   OH235665   0.556   6.806   8.136
 4071TIP3    H135666   0.585   6.753   8.212
 4071TIP3    H235667   0.631   6.788   8.073
 4072TIP3   OH235668   1.151   6.933   8.143
 4072TIP3    H135669   1.134   6.916   8.238
 4072TIP3    H235670   1.124   6.846   8.104
 4073TIP3   OH235671   0.671   6.636   8.355
 4073TIP3    H135672   0.659   6.573   8.427
 4073TIP3    H235673   0.712   6.578   8.285
 4074TIP3   OH235674   0.770   6.469   8.176
 4074TIP3    H135675   0.768   6.477   8.077
 4074TIP3    H235676   0.866   6.456   8.192
 4075TIP3   OH235677   1.717   6.675   8.169
 4075TIP3    H135678   1.704   6.648   8.075
 4075TIP3    H235679   1.719   6.773   8.159
 4076TIP3   OH235680   0.760   7.541   8.360
 4076TIP3    H135681   0.858   7.528   8.362
 4076TIP3    H235682   0.756   7.594   8.279
 4077TIP3   OH235683   0.167   6.952   8.275
 4077TIP3    H135684   0.261   6.980   8.291
 4077TIP3    H235685   0.185   6.873   8.220
 4078TIP3   OH235686   1.867   6.545   8.354
 4078TIP3    H135687   1.827   6.578   8.270
 4078TIP3    H235688   1.852   6.621   8.413
 4079TIP3   OH235689   1.703   6.284   8.203
 4079TIP3    H135690   1.698   6.345   8.127
 4079TIP3    H235691   1.658   6.206   8.166
 4080TIP3   OH235692   1.608   6.014   8.176
 4080TIP3    H135693   1.654   5.983   8.257
 4080TIP3    H235694   1.517   6.026   8.209
 4081TIP3   OH235695   1.804   5.874   8.325
 4081TIP3    H135696   1.822   5.836   8.235
 4081TIP3    H235697   1.884   5.927   8.341
 4082TIP3   OH235698   0.186   5.703   8.398
 4082TIP3    H135699   0.212   5.746   8.314
 4082TIP3    H235700   0.158   5.779   8.452
 4083TIP3   OH235701   0.289   5.869   8.210
 4083TIP3    H135702   0.356   5.825   8.153
 4083TIP3    H235703   0.344   5.889   8.288
 4084TIP3   OH235704   1.014   7.487   8.314
 4084TIP3    H135705   1.109   7.471   8.327
 4084TIP3    H235706   0.999   7.421   8.245
 4085TIP3   OH235707   0.326   7.383   8.190
 4085TIP3    H135708   0.291   7.362   8.277
 4085TIP3    H235709   0.409   7.333   8.194
 4086TIP3   OH235710   2.943   6.372   8.277
 4086TIP3    H135711   3.009   6.431   8.319
 4086TIP3    H235712   3.003   6.309   8.233
 4087TIP3   OH235713   3.171   6.528   8.386
 4087TIP3    H135714   3.149   6.591   8.456
 4087TIP3    H235715   3.222   6.583   8.321
 4088TIP3   OH235716   3.551   5.703   8.452
 4088TIP3    H135717   3.470   5.687   8.401
 4088TIP3    H235718   3.587   5.783   8.408
 4089TIP3   OH235719   3.691   7.139   8.218
 4089TIP3    H135720   3.706   7.221   8.268
 4089TIP3    H235721   3.755   7.077   8.260
 4090TIP3   OH235722   3.190   7.363   8.331
 4090TIP3    H135723   3.247   7.318   8.265
 4090TIP3    H235724   3.249   7.352   8.408
 4091TIP3   OH235725   3.351   6.652   8.241
 4091TIP3    H135726   3.313   6.654   8.150
 4091TIP3    H235727   3.446   6.661   8.217
 4092TIP3   OH235728   2.906   6.020   8.278
 4092TIP3    H135729   2.834   6.042   8.338
 4092TIP3    H235730   2.880   5.934   8.244
 4093TIP3   OH235731   2.533   6.036   8.168
 4093TIP3    H135732   2.470   6.017   8.241
 4093TIP3    H235733   2.483   6.103   8.113
 4094TIP3   OH235734   1.986   6.053   8.411
 4094TIP3    H135735   2.039   6.111   8.352
 4094TIP3    H235736   1.922   6.119   8.444
 4095TIP3   OH235737   2.452   6.335   8.306
 4095TIP3    H135738   2.415   6.282   8.232
 4095TIP3    H235739   2.518   6.388   8.256
 4096TIP3   OH235740   3.169   6.082   8.299
 4096TIP3    H135741   3.071   6.072   8.298
 4096TIP3    H235742   3.182   6.149   8.370
 4097TIP3   OH235743   3.217   6.279   8.469
 4097TIP3    H135744   3.310   6.284   8.497
 4097TIP3    H235745   3.207   6.364   8.420
 4098TIP3   OH235746   2.946   6.946   8.451
 4098TIP3    H135747   2.893   7.018   8.412
 4098TIP3    H235748   2.897   6.867   8.426
 4099TIP3   OH235749   3.720   6.286   8.437
 4099TIP3    H135750   3.660   6.248   8.370
 4099TIP3    H235751   3.732   6.376   8.400
 4100TIP3   OH235752   2.119   6.550   8.252
 4100TIP3    H135753   2.163   6.613   8.314
 4100TIP3    H235754   2.031   6.545   8.293
 4101TIP3   OH235755   3.315   6.977   8.285
 4101TIP3    H135756   3.308   6.957   8.379
 4101TIP3    H235757   3.221   6.988   8.266
 4102TIP3   OH235758   3.707   7.370   8.343
 4102TIP3    H135759   3.770   7.438   8.313
 4102TIP3    H235760   3.628   7.421   8.369
 4103TIP3   OH235761   2.717   7.055   8.110
 4103TIP3    H135762   2.697   6.974   8.060
 4103TIP3    H235763   2.668   7.036   8.193
 4104TIP3   OH235764   2.563   7.014   8.381
 4104TIP3    H135765   2.633   6.974   8.436
 4104TIP3    H235766   2.565   7.105   8.416
 4105TIP3   OH235767   2.209   6.733   8.416
 4105TIP3    H135768   2.241   6.698   8.500
 4105TIP3    H235769   2.279   6.798   8.398
 4106TIP3   OH235770   2.799   7.173   8.393
 4106TIP3    H135771   2.719   7.223   8.422
 4106TIP3    H235772   2.847   7.243   8.346
 4107TIP3   OH235773   2.586   7.302   8.477
 4107TIP3    H135774   2.566   7.366   8.406
 4107TIP3    H235775   2.606   7.364   8.550
 4108TIP3   OH235776   2.404   5.942   8.390
 4108TIP3    H135777   2.454   5.992   8.458
 4108TIP3    H235778   2.465   5.869   8.367
 4109TIP3   OH235779   2.263   6.993   8.313
 4109TIP3    H135780   2.333   7.047   8.352
 4109TIP3    H235781   2.319   6.936   8.254
 4110TIP3   OH235782   2.084   6.267   8.259
 4110TIP3    H135783   2.137   6.349   8.262
 4110TIP3    H235784   2.005   6.297   8.214
 4111TIP3   OH235785   2.893   7.275   8.150
 4111TIP3    H135786   2.855   7.185   8.136
 4111TIP3    H235787   2.983   7.261   8.113
 4112TIP3   OH235788   3.343   7.221   8.147
 4112TIP3    H135789   3.366   7.142   8.201
 4112TIP3    H235790   3.421   7.228   8.087
 4113TIP3   OH235791   2.415   6.825   8.156
 4113TIP3    H135792   2.451   6.746   8.201
 4113TIP3    H235793   2.487   6.840   8.093
 4114TIP3   OH235794   3.037   6.948   8.156
 4114TIP3    H135795   3.020   6.892   8.232
 4114TIP3    H235796   3.025   6.884   8.082
 4115TIP3   OH235797   2.539   6.638   8.310
 4115TIP3    H135798   2.498   6.591   8.384
 4115TIP3    H235799   2.600   6.571   8.272
 4116TIP3   OH235800   2.698   6.458   8.205
 4116TIP3    H135801   2.713   6.487   8.114
 4116TIP3    H235802   2.788   6.424   8.230
 4117TIP3   OH235803   3.592   6.673   8.132
 4117TIP3    H135804   3.573   6.643   8.041
 4117TIP3    H235805   3.594   6.771   8.121
 4118TIP3   OH235806   2.619   7.524   8.337
 4118TIP3    H135807   2.715   7.510   8.340
 4118TIP3    H235808   2.608   7.564   8.250
 4119TIP3   OH235809   1.986   6.958   8.283
 4119TIP3    H135810   2.084   6.961   8.283
 4119TIP3    H235811   1.973   6.900   8.205
 4120TIP3   OH235812   3.737   6.552   8.342
 4120TIP3    H135813   3.699   6.592   8.261
 4120TIP3    H235814   3.716   6.619   8.409
 4121TIP3   OH235815   3.529   6.289   8.206
 4121TIP3    H135816   3.577   6.326   8.130
 4121TIP3    H235817   3.513   6.197   8.176
 4122TIP3   OH235818   3.478   6.029   8.174
 4122TIP3    H135819   3.539   5.978   8.230
 4122TIP3    H235820   3.404   6.043   8.236
 4123TIP3   OH235821   3.685   5.882   8.311
 4123TIP3    H135822   3.710   5.828   8.232
 4123TIP3    H235823   3.771   5.921   8.337
 4124TIP3   OH235824   2.071   5.715   8.414
 4124TIP3    H135825   2.107   5.712   8.323
 4124TIP3    H235826   2.082   5.810   8.433
 4125TIP3   OH235827   2.180   5.880   8.235
 4125TIP3    H135828   2.249   5.846   8.173
 4125TIP3    H235829   2.236   5.916   8.307
 4126TIP3   OH235830   2.886   7.453   8.342
 4126TIP3    H135831   2.982   7.467   8.343
 4126TIP3    H235832   2.880   7.402   8.259
 4127TIP3   OH235833   2.234   7.403   8.178
 4127TIP3    H135834   2.169   7.389   8.249
 4127TIP3    H235835   2.290   7.324   8.184
 4128TIP3   OH235836   4.812   6.456   8.254
 4128TIP3    H135837   4.891   6.496   8.300
 4128TIP3    H235838   4.859   6.388   8.201
 4129TIP3   OH235839   5.027   6.565   8.370
 4129TIP3    H135840   5.051   6.609   8.453
 4129TIP3    H235841   5.086   6.613   8.307
 4130TIP3   OH235842   5.429   5.698   8.454
 4130TIP3    H135843   5.337   5.719   8.484
 4130TIP3    H235844   5.453   5.780   8.405
 4131TIP3   OH235845   5.540   7.119   8.265
 4131TIP3    H135846   5.573   7.201   8.308
 4131TIP3    H235847   5.617   7.059   8.280
 4132TIP3   OH235848   5.072   7.335   8.352
 4132TIP3    H135849   5.108   7.293   8.271
 4132TIP3    H235850   5.153   7.357   8.401
 4133TIP3   OH235851   5.215   6.696   8.237
 4133TIP3    H135852   5.192   6.690   8.141
 4133TIP3    H235853   5.314   6.691   8.229
 4134TIP3   OH235854   4.785   6.023   8.272
 4134TIP3    H135855   4.726   6.036   8.348
 4134TIP3    H235856   4.778   5.928   8.255
 4135TIP3   OH235857   4.414   6.059   8.158
 4135TIP3    H135858   4.362   6.015   8.229
 4135TIP3    H235859   4.353   6.130   8.130
 4136TIP3   OH235860   3.872   6.050   8.411
 4136TIP3    H135861   3.950   6.082   8.362
 4136TIP3    H235862   3.825   6.133   8.424
 4137TIP3   OH235863   4.322   6.313   8.315
 4137TIP3    H135864   4.272   6.270   8.244
 4137TIP3    H235865   4.399   6.349   8.267
 4138TIP3   OH235866   5.039   6.114   8.266
 4138TIP3    H135867   4.944   6.096   8.284
 4138TIP3    H235868   5.080   6.053   8.332
 4139TIP3   OH235869   5.080   6.317   8.488
 4139TIP3    H135870   5.166   6.273   8.479
 4139TIP3    H235871   5.058   6.340   8.396
 4140TIP3   OH235872   4.847   6.959   8.446
 4140TIP3    H135873   4.776   7.014   8.409
 4140TIP3    H235874   4.801   6.875   8.459
 4141TIP3   OH235875   5.593   6.276   8.440
 4141TIP3    H135876   5.530   6.260   8.366
 4141TIP3    H235877   5.603   6.373   8.433
 4142TIP3   OH235878   4.014   6.574   8.258
 4142TIP3    H135879   4.049   6.638   8.324
 4142TIP3    H235880   3.923   6.557   8.293
 4143TIP3   OH235881   5.149   6.948   8.326
 4143TIP3    H135882   5.158   6.854   8.351
 4143TIP3    H235883   5.104   6.937   8.239
 4144TIP3   OH235884   5.610   7.366   8.359
 4144TIP3    H135885   5.684   7.417   8.321
 4144TIP3    H235886   5.533   7.410   8.317
 4145TIP3   OH235887   4.595   7.055   8.122
 4145TIP3    H135888   4.567   6.983   8.062
 4145TIP3    H235889   4.533   7.036   8.196
 4146TIP3   OH235890   4.449   7.011   8.380
 4146TIP3    H135891   4.460   6.953   8.457
 4146TIP3    H235892   4.460   7.097   8.423
 4147TIP3   OH235893   4.094   6.756   8.446
 4147TIP3    H135894   4.122   6.697   8.517
 4147TIP3    H235895   4.180   6.792   8.419
 4148TIP3   OH235896   4.678   7.170   8.398
 4148TIP3    H135897   4.596   7.223   8.418
 4148TIP3    H235898   4.707   7.215   8.317
 4149TIP3   OH235899   4.460   7.298   8.465
 4149TIP3    H135900   4.424   7.353   8.394
 4149TIP3    H235901   4.467   7.362   8.538
 4150TIP3   OH235902   4.294   5.949   8.377
 4150TIP3    H135903   4.314   6.012   8.450
 4150TIP3    H235904   4.377   5.900   8.374
 4151TIP3   OH235905   4.127   6.997   8.294
 4151TIP3    H135906   4.175   7.079   8.310
 4151TIP3    H235907   4.199   6.941   8.259
 4152TIP3   OH235908   3.981   6.274   8.249
 4152TIP3    H135909   4.019   6.363   8.240
 4152TIP3    H235910   3.901   6.280   8.196
 4153TIP3   OH235911   4.793   7.252   8.166
 4153TIP3    H135912   4.736   7.172   8.149
 4153TIP3    H235913   4.874   7.224   8.117
 4154TIP3   OH235914   5.219   7.199   8.139
 4154TIP3    H135915   5.267   7.113   8.154
 4154TIP3    H235916   5.281   7.234   8.069
 4155TIP3   OH235917   4.340   6.811   8.141
 4155TIP3    H135918   4.373   6.782   8.229
 4155TIP3    H235919   4.409   6.773   8.083
 4156TIP3   OH235920   4.909   6.936   8.139
 4156TIP3    H135921   4.820   6.941   8.176
 4156TIP3    H235922   4.906   6.844   8.103
 4157TIP3   OH235923   4.430   6.631   8.363
 4157TIP3    H135924   4.401   6.560   8.424
 4157TIP3    H235925   4.474   6.577   8.293
 4158TIP3   OH235926   4.549   6.461   8.194
 4158TIP3    H135927   4.541   6.479   8.098
 4158TIP3    H235928   4.647   6.447   8.204
 4159TIP3   OH235929   5.477   6.715   8.205
 4159TIP3    H135930   5.513   6.644   8.146
 4159TIP3    H235931   5.528   6.790   8.171
 4160TIP3   OH235932   4.504   7.554   8.328
 4160TIP3    H135933   4.596   7.531   8.345
 4160TIP3    H235934   4.505   7.575   8.234
 4161TIP3   OH235935   3.864   6.951   8.272
 4161TIP3    H135936   3.962   6.961   8.277
 4161TIP3    H235937   3.855   6.893   8.193
 4162TIP3   OH235938   5.566   6.556   8.451
 4162TIP3    H135939   5.546   6.548   8.355
 4162TIP3    H235940   5.653   6.597   8.445
 4163TIP3   OH235941   5.431   6.297   8.195
 4163TIP3    H135942   5.473   6.321   8.111
 4163TIP3    H235943   5.399   6.206   8.177
 4164TIP3   OH235944   5.372   6.028   8.156
 4164TIP3    H135945   5.432   5.976   8.213
 4164TIP3    H235946   5.289   6.008   8.202
 4165TIP3   OH235947   5.578   5.877   8.307
 4165TIP3    H135948   5.613   5.824   8.231
 4165TIP3    H235949   5.658   5.922   8.341
 4166TIP3   OH235950   3.957   5.740   8.377
 4166TIP3    H135951   3.976   5.814   8.315
 4166TIP3    H235952   3.966   5.787   8.462
 4167TIP3   OH235953   4.071   5.934   8.230
 4167TIP3    H135954   4.128   5.878   8.174
 4167TIP3    H235955   4.131   5.949   8.306
 4168TIP3   OH235956   4.769   7.494   8.309
 4168TIP3    H135957   4.865   7.488   8.310
 4168TIP3    H235958   4.752   7.420   8.249
 4169TIP3   OH235959   4.099   7.389   8.166
 4169TIP3    H135960   4.044   7.416   8.242
 4169TIP3    H235961   4.161   7.328   8.206
 4170TIP3   OH235962   6.699   6.469   8.254
 4170TIP3    H135963   6.764   6.507   8.318
 4170TIP3    H235964   6.752   6.394   8.223
 4171TIP3   OH235965   6.917   6.542   8.388
 4171TIP3    H135966   6.946   6.583   8.472
 4171TIP3    H235967   6.970   6.591   8.320
 4172TIP3   OH235968   7.280   5.682   8.456
 4172TIP3    H135969   7.191   5.680   8.418
 4172TIP3    H235970   7.317   5.764   8.418
 4173TIP3   OH235971   7.419   7.129   8.237
 4173TIP3    H135972   7.410   7.188   8.314
 4173TIP3    H235973   7.498   7.079   8.265
 4174TIP3   OH235974   6.928   7.352   8.337
 4174TIP3    H135975   6.969   7.290   8.273
 4174TIP3    H235976   7.007   7.380   8.387
 4175TIP3   OH235977   7.083   6.683   8.242
 4175TIP3    H135978   7.062   6.690   8.146
 4175TIP3    H235979   7.180   6.680   8.239
 4176TIP3   OH235980   6.656   6.010   8.295
 4176TIP3    H135981   6.586   6.037   8.355
 4176TIP3    H235982   6.613   5.945   8.238
 4177TIP3   OH235983   6.305   6.040   8.172
 4177TIP3    H135984   6.238   6.019   8.241
 4177TIP3    H235985   6.260   6.116   8.129
 4178TIP3   OH235986   5.752   6.063   8.404
 4178TIP3    H135987   5.803   6.117   8.341
 4178TIP3    H235988   5.686   6.129   8.435
 4179TIP3   OH235989   6.236   6.323   8.306
 4179TIP3    H135990   6.190   6.286   8.228
 4179TIP3    H235991   6.318   6.355   8.264
 4180TIP3   OH235992   6.927   6.089   8.298
 4180TIP3    H135993   6.831   6.075   8.314
 4180TIP3    H235994   6.953   6.146   8.375
 4181TIP3   OH235995   6.980   6.289   8.467
 4181TIP3    H135996   7.076   6.300   8.468
 4181TIP3    H235997   6.953   6.356   8.400
 4182TIP3   OH235998   6.741   6.927   8.417
 4182TIP3    H135999   6.685   7.007   8.415
 4182TIP3    H236000   6.678   6.861   8.448
 4183TIP3   OH236001   7.457   6.301   8.431
 4183TIP3    H136002   7.402   6.275   8.353
 4183TIP3    H236003   7.487   6.390   8.401
 4184TIP3   OH236004   5.911   6.479   8.403
 4184TIP3    H136005   5.964   6.561   8.402
 4184TIP3    H236006   5.848   6.502   8.331
 4185TIP3   OH236007   7.098   6.970   8.311
 4185TIP3    H136008   7.098   6.997   8.403
 4185TIP3    H236009   7.010   6.928   8.301
 4186TIP3   OH236010   7.464   7.361   8.387
 4186TIP3    H136011   7.537   7.388   8.329
 4186TIP3    H236012   7.385   7.400   8.345
 4187TIP3   OH236013   6.481   7.052   8.129
 4187TIP3    H136014   6.465   6.979   8.067
 4187TIP3    H236015   6.426   7.019   8.204
 4188TIP3   OH236016   6.340   7.007   8.377
 4188TIP3    H136017   6.343   6.943   8.449
 4188TIP3    H236018   6.367   7.087   8.425
 4189TIP3   OH236019   5.978   6.737   8.422
 4189TIP3    H136020   5.971   6.757   8.516
 4189TIP3    H236021   6.062   6.779   8.399
 4190TIP3   OH236022   6.568   7.184   8.408
 4190TIP3    H136023   6.480   7.228   8.418
 4190TIP3    H236024   6.603   7.233   8.332
 4191TIP3   OH236025   6.344   7.317   8.467
 4191TIP3    H136026   6.298   7.373   8.402
 4191TIP3    H236027   6.392   7.381   8.524
 4192TIP3   OH236028   6.171   5.944   8.377
 4192TIP3    H136029   6.197   6.007   8.449
 4192TIP3    H236030   6.250   5.887   8.375
 4193TIP3   OH236031   6.029   7.001   8.298
 4193TIP3    H136032   6.088   7.069   8.334
 4193TIP3    H236033   6.093   6.941   8.256
 4194TIP3   OH236034   5.885   6.273   8.228
 4194TIP3    H136035   5.924   6.334   8.294
 4194TIP3    H236036   5.802   6.320   8.204
 4195TIP3   OH236037   6.660   7.264   8.151
 4195TIP3    H136038   6.619   7.174   8.148
 4195TIP3    H236039   6.749   7.244   8.114
 4196TIP3   OH236040   7.096   7.207   8.153
 4196TIP3    H136041   7.121   7.139   8.219
 4196TIP3    H236042   7.180   7.214   8.103
 4197TIP3   OH236043   6.226   6.822   8.126
 4197TIP3    H136044   6.204   6.746   8.182
 4197TIP3    H236045   6.309   6.791   8.083
 4198TIP3   OH236046   6.814   6.935   8.151
 4198TIP3    H136047   6.797   6.925   8.247
 4198TIP3    H236048   6.785   6.846   8.119
 4199TIP3   OH236049   6.315   6.631   8.356
 4199TIP3    H136050   6.282   6.561   8.414
 4199TIP3    H236051   6.360   6.579   8.287
 4200TIP3   OH236052   6.449   6.457   8.177
 4200TIP3    H136053   6.441   6.483   8.082
 4200TIP3    H236054   6.547   6.456   8.187
 4201TIP3   OH236055   7.356   6.667   8.164
 4201TIP3    H136056   7.322   6.644   8.075
 4201TIP3    H236057   7.354   6.766   8.157
 4202TIP3   OH236058   6.386   7.573   8.302
 4202TIP3    H136059   6.472   7.543   8.338
 4202TIP3    H236060   6.416   7.611   8.219
 4203TIP3   OH236061   5.749   6.962   8.302
 4203TIP3    H136062   5.845   6.983   8.309
 4203TIP3    H236063   5.750   6.901   8.225
 4204TIP3   OH236064   7.519   6.549   8.353
 4204TIP3    H136065   7.497   6.587   8.266
 4204TIP3    H236066   7.549   6.625   8.405
 4205TIP3   OH236067   7.331   6.244   8.203
 4205TIP3    H136068   7.327   6.299   8.124
 4205TIP3    H236069   7.280   6.168   8.169
 4206TIP3   OH236070   7.241   5.988   8.130
 4206TIP3    H136071   7.304   5.955   8.196
 4206TIP3    H236072   7.164   6.005   8.185
 4207TIP3   OH236073   7.433   5.880   8.332
 4207TIP3    H136074   7.452   5.823   8.256
 4207TIP3    H236075   7.516   5.929   8.342
 4208TIP3   OH236076   5.825   5.718   8.390
 4208TIP3    H136077   5.835   5.788   8.322
 4208TIP3    H236078   5.858   5.766   8.468
 4209TIP3   OH236079   5.946   5.898   8.225
 4209TIP3    H136080   6.016   5.853   8.174
 4209TIP3    H236081   5.998   5.929   8.303
 4210TIP3   OH236082   6.635   7.484   8.320
 4210TIP3    H136083   6.730   7.469   8.307
 4210TIP3    H236084   6.602   7.425   8.250
 4211TIP3   OH236085   6.036   7.443   8.223
 4211TIP3    H136086   5.945   7.427   8.256
 4211TIP3    H236087   6.071   7.352   8.217
 4212TIP3   OH236088   7.619   6.078   8.389
 4212TIP3    H136089   7.626   6.111   8.299
 4212TIP3    H236090   7.560   6.146   8.425
 4213TIP3   OH236091   7.615   6.952   8.313
 4213TIP3    H136092   7.713   6.952   8.301
 4213TIP3    H236093   7.587   6.909   8.230
 4214TIP3   OH236094   1.599   7.525   8.421
 4214TIP3    H136095   1.543   7.520   8.499
 4214TIP3    H236096   1.640   7.612   8.429
 4215TIP3   OH236097   0.110   7.544   8.387
 4215TIP3    H136098   0.201   7.518   8.373
 4215TIP3    H236099   0.109   7.637   8.357
 4216TIP3   OH236100   3.479   7.490   8.425
 4216TIP3    H136101   3.440   7.499   8.513
 4216TIP3    H236102   3.489   7.582   8.395
 4217TIP3   OH236103   2.023   7.541   8.313
 4217TIP3    H136104   2.088   7.586   8.258
 4217TIP3    H236105   2.007   7.612   8.378
 4218TIP3   OH236106   5.361   7.516   8.385
 4218TIP3    H136107   5.366   7.524   8.482
 4218TIP3    H236108   5.422   7.584   8.358
 4219TIP3   OH236109   3.903   7.552   8.322
 4219TIP3    H136110   3.908   7.634   8.270
 4219TIP3    H236111   3.921   7.592   8.409
 4220TIP3   OH236112   7.214   7.527   8.388
 4220TIP3    H136113   7.180   7.545   8.477
 4220TIP3    H236114   7.274   7.602   8.373
 4221TIP3   OH236115   5.799   7.555   8.297
 4221TIP3    H136116   5.738   7.631   8.282
 4221TIP3    H236117   5.828   7.581   8.386
 4222TIP3   OH236118   1.224   1.007   0.669
 4222TIP3    H136119   1.211   1.100   0.692
 4222TIP3    H236120   1.143   0.987   0.620
 4223TIP3   OH236121   1.087   0.898   1.013
 4223TIP3    H136122   1.075   0.868   1.106
 4223TIP3    H236123   1.016   0.849   0.966
 4224TIP3   OH236124   0.303   0.881   1.177
 4224TIP3    H136125   0.286   0.818   1.248
 4224TIP3    H236126   0.370   0.937   1.221
 4225TIP3   OH236127   1.412   1.202   0.889
 4225TIP3    H136128   1.382   1.133   0.950
 4225TIP3    H236129   1.429   1.277   0.948
 4226TIP3   OH236130   0.366   1.351   1.006
 4226TIP3    H136131   0.342   1.258   0.984
 4226TIP3    H236132   0.463   1.338   1.002
 4227TIP3   OH236133   0.112   0.690   0.527
 4227TIP3    H136134   0.088   0.777   0.560
 4227TIP3    H236135   0.030   0.639   0.545
 4228TIP3   OH236136   0.203   0.915   0.817
 4228TIP3    H136137   0.227   0.819   0.828
 4228TIP3    H236138   0.236   0.938   0.729
 4229TIP3   OH236139   1.158   1.750   0.857
 4229TIP3    H136140   1.226   1.687   0.824
 4229TIP3    H236141   1.115   1.696   0.924
 4230TIP3   OH236142   0.888   1.213   1.118
 4230TIP3    H136143   0.917   1.182   1.031
 4230TIP3    H236144   0.972   1.203   1.167
 4231TIP3   OH236145   1.775   0.305   1.134
 4231TIP3    H136146   1.787   0.369   1.208
 4231TIP3    H236147   1.836   0.341   1.068
 4232TIP3   OH236148   1.271   0.628   1.132
 4232TIP3    H136149   1.287   0.536   1.161
 4232TIP3    H236150   1.243   0.610   1.041
 4233TIP3   OH236151   0.571   0.416   0.807
 4233TIP3    H136152   0.580   0.495   0.749
 4233TIP3    H236153   0.540   0.349   0.743
 4234TIP3   OH236154   1.325   0.416   0.682
 4234TIP3    H136155   1.370   0.405   0.769
 4234TIP3    H236156   1.385   0.480   0.640
 4235TIP3   OH236157   0.256   0.667   0.872
 4235TIP3    H136158   0.328   0.660   0.936
 4235TIP3    H236159   0.288   0.618   0.794
 4236TIP3   OH236160   0.669   0.828   0.829
 4236TIP3    H136161   0.750   0.783   0.858
 4236TIP3    H236162   0.637   0.761   0.764
 4237TIP3   OH236163   1.801   0.463   1.350
 4237TIP3    H136164   1.750   0.545   1.326
 4237TIP3    H236165   1.813   0.481   1.445
 4238TIP3   OH236166   0.438   0.305   1.253
 4238TIP3    H136167   0.416   0.359   1.174
 4238TIP3    H236168   0.351   0.296   1.294
 4239TIP3   OH236169   1.139   1.261   0.577
 4239TIP3    H136170   1.120   1.258   0.481
 4239TIP3    H236171   1.110   1.350   0.602
 4240TIP3   OH236172   0.674   1.057   1.212
 4240TIP3    H136173   0.619   1.112   1.272
 4240TIP3    H236174   0.735   1.124   1.177
 4241TIP3   OH236175   1.487   0.443   0.900
 4241TIP3    H136176   1.500   0.360   0.950
 4241TIP3    H236177   1.518   0.507   0.968
 4242TIP3   OH236178   0.400   0.496   1.017
 4242TIP3    H136179   0.465   0.559   1.055
 4242TIP3    H236180   0.455   0.455   0.944
 4243TIP3   OH236181   0.528   1.289   1.299
 4243TIP3    H136182   0.528   1.367   1.242
 4243TIP3    H236183   0.438   1.292   1.334
 4244TIP3   OH236184   0.193   1.276   0.425
 4244TIP3    H136185   0.099   1.247   0.428
 4244TIP3    H236186   0.194   1.347   0.493
 4245TIP3   OH236187   1.484   1.433   1.033
 4245TIP3    H136188   1.393   1.453   1.063
 4245TIP3    H236189   1.522   1.522   1.047
 4246TIP3   OH236190   1.530   0.199   1.231
 4246TIP3    H136191   1.471   0.205   1.153
 4246TIP3    H236192   1.617   0.210   1.187
 4247TIP3   OH236193   0.826   0.091   0.915
 4247TIP3    H136194   0.830   0.002   0.955
 4247TIP3    H236195   0.775   0.141   0.983
 4248TIP3   OH236196   1.339   1.579   0.754
 4248TIP3    H136197   1.269   1.533   0.702
 4248TIP3    H236198   1.363   1.655   0.698
 4249TIP3   OH236199   1.475   1.350   0.609
 4249TIP3    H136200   1.447   1.302   0.528
 4249TIP3    H236201   1.432   1.292   0.675
 4250TIP3   OH236202   1.623   1.253   1.471
 4250TIP3    H136203   1.604   1.171   1.419
 4250TIP3    H236204   1.622   1.320   1.401
 4251TIP3   OH236205   1.047   0.934   0.431
 4251TIP3    H136206   0.986   0.997   0.389
 4251TIP3    H236207   1.130   0.951   0.381
 4252TIP3   OH236208   1.036   0.830   0.149
 4252TIP3    H136209   1.116   0.846   0.204
 4252TIP3    H236210   1.063   0.751   0.099
 4253TIP3   OH236211   1.797   0.894   1.248
 4253TIP3    H136212   1.720   0.955   1.242
 4253TIP3    H236213   1.851   0.930   1.175
 4254TIP3   OH236214   1.427   0.898   0.516
 4254TIP3    H136215   1.362   0.944   0.575
 4254TIP3    H236216   1.493   0.866   0.582
 4255TIP3   OH236217   1.419   0.782   1.460
 4255TIP3    H136218   1.427   0.872   1.495
 4255TIP3    H236219   1.342   0.792   1.402
 4256TIP3   OH236220   0.522   1.013   0.708
 4256TIP3    H136221   0.507   0.960   0.627
 4256TIP3    H236222   0.574   0.950   0.762
 4257TIP3   OH236223   0.695   1.348   0.976
 4257TIP3    H136224   0.706   1.322   0.883
 4257TIP3    H236225   0.768   1.300   1.022
 4258TIP3   OH236226   0.565   0.866   1.072
 4258TIP3    H136227   0.614   0.879   0.988
 4258TIP3    H236228   0.596   0.940   1.129
 4259TIP3   OH236229   1.250   1.464   1.153
 4259TIP3    H136230   1.193   1.510   1.217
 4259TIP3    H236231   1.235   1.372   1.180
 4260TIP3   OH236232   0.679   1.324   1.516
 4260TIP3    H136233   0.607   1.369   1.564
 4260TIP3    H236234   0.635   1.308   1.430
 4261TIP3   OH236235   1.275   0.876   0.301
 4261TIP3    H136236   1.335   0.872   0.379
 4261TIP3    H236237   1.329   0.927   0.237
 4262TIP3   OH236238   0.410   0.960   1.415
 4262TIP3    H136239   0.413   1.036   1.478
 4262TIP3    H236240   0.328   0.919   1.444
 4263TIP3   OH236241   1.081   1.536   0.652
 4263TIP3    H136242   1.024   1.559   0.726
 4263TIP3    H236243   1.033   1.574   0.576
 4264TIP3   OH236244   0.497   1.513   1.630
 4264TIP3    H136245   0.491   1.554   1.540
 4264TIP3    H236246   0.402   1.504   1.653
 4265TIP3   OH236247   1.692   0.094   0.333
 4265TIP3    H136248   1.599   0.118   0.325
 4265TIP3    H236249   1.732   0.166   0.280
 4266TIP3   OH236250   0.410   0.896   0.497
 4266TIP3    H136251   0.377   0.972   0.442
 4266TIP3    H236252   0.390   0.820   0.442
 4267TIP3   OH236253   1.753   1.450   0.090
 4267TIP3    H136254   1.784   1.541   0.102
 4267TIP3    H236255   1.837   1.403   0.108
 4268TIP3   OH236256   0.121   1.137   1.380
 4268TIP3    H136257   0.024   1.142   1.384
 4268TIP3    H236258   0.140   1.042   1.371
 4269TIP3   OH236259   0.101   1.473   1.013
 4269TIP3    H136260   0.182   1.418   1.022
 4269TIP3    H236261   0.117   1.539   1.082
 4270TIP3   OH236262   1.877   1.448   1.634
 4270TIP3    H136263   1.846   1.360   1.663
 4270TIP3    H236264   1.795   1.498   1.659
 4271TIP3   OH236265   0.934   1.443   1.518
 4271TIP3    H136266   0.962   1.531   1.551
 4271TIP3    H236267   0.836   1.446   1.529
 4272TIP3   OH236268   1.027   1.826   0.451
 4272TIP3    H136269   1.009   1.847   0.359
 4272TIP3    H236270   1.023   1.914   0.494
 4273TIP3   OH236271   0.406   1.662   0.658
 4273TIP3    H136272   0.394   1.644   0.753
 4273TIP3    H236273   0.332   1.723   0.638
 4274TIP3   OH236274   1.352   1.731   0.162
 4274TIP3    H136275   1.395   1.656   0.114
 4274TIP3    H236276   1.348   1.697   0.252
 4275TIP3   OH236277   1.286   1.750   0.440
 4275TIP3    H136278   1.192   1.781   0.450
 4275TIP3    H236279   1.273   1.657   0.463
 4276TIP3   OH236280   1.577   0.625   1.650
 4276TIP3    H136281   1.530   0.673   1.579
 4276TIP3    H236282   1.564   0.532   1.627
 4277TIP3   OH236283   0.268   1.343   1.447
 4277TIP3    H136284   0.298   1.284   1.518
 4277TIP3    H236285   0.204   1.279   1.407
 4278TIP3   OH236286   0.612   0.206   1.060
 4278TIP3    H136287   0.528   0.215   1.010
 4278TIP3    H236288   0.585   0.234   1.148
 4279TIP3   OH236289   0.991   0.160   1.435
 4279TIP3    H136290   1.053   0.087   1.419
 4279TIP3    H236291   0.912   0.128   1.389
 4280TIP3   OH236292   1.310   0.519   1.446
 4280TIP3    H136293   1.265   0.480   1.525
 4280TIP3    H236294   1.347   0.600   1.485
 4281TIP3   OH236295   1.419   0.991   0.098
 4281TIP3    H136296   1.408   1.051   0.023
 4281TIP3    H236297   1.516   0.989   0.102
 4282TIP3   OH236298   0.998   0.370   0.152
 4282TIP3    H136299   0.946   0.360   0.233
 4282TIP3    H236300   0.965   0.294   0.102
 4283TIP3   OH236301   0.581   0.638   1.193
 4283TIP3    H136302   0.490   0.637   1.230
 4283TIP3    H236303   0.582   0.731   1.158
 4284TIP3   OH236304   0.574   0.642   0.656
 4284TIP3    H136305   0.481   0.615   0.638
 4284TIP3    H236306   0.607   0.649   0.564
 4285TIP3   OH236307   1.125   0.679   0.512
 4285TIP3    H136308   1.095   0.767   0.479
 4285TIP3    H236309   1.194   0.655   0.448
 4286TIP3   OH236310   1.193   0.651   0.852
 4286TIP3    H136311   1.205   0.736   0.805
 4286TIP3    H236312   1.207   0.586   0.782
 4287TIP3   OH236313   0.340   0.620   1.322
 4287TIP3    H136314   0.348   0.666   1.406
 4287TIP3    H236315   0.278   0.547   1.342
 4288TIP3   OH236316   0.697   0.413   0.058
 4288TIP3    H136317   0.670   0.376   0.143
 4288TIP3    H236318   0.661   0.505   0.064
 4289TIP3   OH236319   0.097   0.400   0.795
 4289TIP3    H136320   0.145   0.320   0.822
 4289TIP3    H236321   0.080   0.377   0.702
 4290TIP3   OH236322   0.172   0.473   0.333
 4290TIP3    H136323   0.232   0.500   0.261
 4290TIP3    H236324   0.147   0.560   0.370
 4291TIP3   OH236325   1.084   0.779   1.263
 4291TIP3    H136326   1.163   0.732   1.228
 4291TIP3    H236327   1.053   0.711   1.327
 4292TIP3   OH236328   0.855   0.391   0.770
 4292TIP3    H136329   0.761   0.382   0.793
 4292TIP3    H236330   0.896   0.360   0.852
 4293TIP3   OH236331   0.321   0.546   0.639
 4293TIP3    H136332   0.253   0.567   0.572
 4293TIP3    H236333   0.351   0.455   0.616
 4294TIP3   OH236334   0.643   0.574   0.398
 4294TIP3    H136335   0.739   0.584   0.416
 4294TIP3    H236336   0.632   0.609   0.307
 4295TIP3   OH236337   1.297   0.349   1.076
 4295TIP3    H136338   1.241   0.333   1.155
 4295TIP3    H236339   1.246   0.304   1.008
 4296TIP3   OH236340   0.598   0.652   0.150
 4296TIP3    H136341   0.505   0.666   0.123
 4296TIP3    H236342   0.647   0.714   0.092
 4297TIP3   OH236343   1.566   1.858   1.770
 4297TIP3    H136344   1.605   1.910   1.699
 4297TIP3    H236345   1.632   1.866   1.842
 4298TIP3   OH236346   0.380   1.156   1.621
 4298TIP3    H136347   0.456   1.175   1.680
 4298TIP3    H236348   0.313   1.138   1.692
 4299TIP3   OH236349   0.933   0.679   0.913
 4299TIP3    H136350   1.025   0.663   0.885
 4299TIP3    H236351   0.927   0.609   0.980
 4300TIP3   OH236352   0.422   0.306   0.607
 4300TIP3    H136353   0.358   0.239   0.639
 4300TIP3    H236354   0.462   0.259   0.534
 4301TIP3   OH236355   0.819   0.479   1.162
 4301TIP3    H136356   0.743   0.540   1.160
 4301TIP3    H236357   0.880   0.528   1.219
 4302TIP3   OH236358   0.867   1.131   0.391
 4302TIP3    H136359   0.797   1.076   0.348
 4302TIP3    H236360   0.826   1.147   0.480
 4303TIP3   OH236361   1.600   1.085   1.265
 4303TIP3    H136362   1.654   1.136   1.201
 4303TIP3    H236363   1.513   1.086   1.220
 4304TIP3   OH236364   1.284   0.414   0.128
 4304TIP3    H136365   1.187   0.407   0.116
 4304TIP3    H236366   1.290   0.475   0.204
 4305TIP3   OH236367   1.028   1.188   1.517
 4305TIP3    H136368   0.951   1.130   1.516
 4305TIP3    H236369   0.987   1.276   1.529
 4306TIP3   OH236370   1.328   0.577   0.340
 4306TIP3    H136371   1.391   0.585   0.415
 4306TIP3    H236372   1.353   0.655   0.288
 4307TIP3   OH236373   0.402   1.092   0.955
 4307TIP3    H136374   0.393   1.052   0.867
 4307TIP3    H236375   0.426   1.014   1.007
 4308TIP3   OH236376   1.081   1.274   0.292
 4308TIP3    H136377   1.036   1.360   0.307
 4308TIP3    H236378   1.013   1.210   0.322
 4309TIP3   OH236379   0.149   0.845   1.436
 4309TIP3    H136380   0.159   0.813   1.527
 4309TIP3    H236381   0.053   0.864   1.438
 4310TIP3   OH236382   1.279   1.401   1.500
 4310TIP3    H136383   1.195   1.403   1.453
 4310TIP3    H236384   1.253   1.439   1.586
 4311TIP3   OH236385   1.808   0.623   0.331
 4311TIP3    H136386   1.757   0.604   0.250
 4311TIP3    H236387   1.824   0.720   0.321
 4312TIP3   OH236388   1.827   1.184   1.621
 4312TIP3    H136389   1.738   1.208   1.586
 4312TIP3    H236390   1.881   1.190   1.539
 4313TIP3   OH236391   1.651   1.471   0.346
 4313TIP3    H136392   1.626   1.382   0.372
 4313TIP3    H236393   1.679   1.458   0.253
 4314TIP3   OH236394   1.356   0.997   1.070
 4314TIP3    H136395   1.269   0.968   1.035
 4314TIP3    H236396   1.417   0.941   1.020
 4315TIP3   OH236397   0.620   1.423   0.701
 4315TIP3    H136398   0.657   1.513   0.692
 4315TIP3    H236399   0.530   1.440   0.667
 4316TIP3   OH236400   0.187   0.890   0.166
 4316TIP3    H136401   0.265   0.939   0.201
 4316TIP3    H236402   0.115   0.947   0.192
 4317TIP3   OH236403   0.723   1.178   0.627
 4317TIP3    H136404   0.689   1.266   0.656
 4317TIP3    H236405   0.660   1.118   0.673
 4318TIP3   OH236406   0.813   1.612   1.317
 4318TIP3    H136407   0.870   1.682   1.280
 4318TIP3    H236408   0.876   1.565   1.374
 4319TIP3   OH236409   0.663   1.677   0.600
 4319TIP3    H136410   0.565   1.666   0.606
 4319TIP3    H236411   0.667   1.768   0.636
 4320TIP3   OH236412   1.148   1.212   1.228
 4320TIP3    H136413   1.133   1.199   1.323
 4320TIP3    H236414   1.213   1.142   1.209
 4321TIP3   OH236415   1.382   1.319   0.181
 4321TIP3    H136416   1.408   1.264   0.257
 4321TIP3    H236417   1.287   1.297   0.180
 4322TIP3   OH236418   1.454   1.656   1.494
 4322TIP3    H136419   1.366   1.622   1.469
 4322TIP3    H236420   1.476   1.713   1.416
 4323TIP3   OH236421   1.833   1.741   0.187
 4323TIP3    H136422   1.886   1.795   0.127
 4323TIP3    H236423   1.768   1.805   0.222
 4324TIP3   OH236424   0.205   0.397   1.439
 4324TIP3    H136425   0.177   0.455   1.513
 4324TIP3    H236426   0.262   0.333   1.487
 4325TIP3   OH236427   1.470   1.158   0.396
 4325TIP3    H136428   1.450   1.065   0.418
 4325TIP3    H236429   1.567   1.158   0.407
 4326TIP3   OH236430   0.217   1.593   1.243
 4326TIP3    H136431   0.283   1.526   1.267
 4326TIP3    H236432   0.177   1.612   1.329
 4327TIP3   OH236433   0.691   1.366   0.252
 4327TIP3    H136434   0.764   1.320   0.295
 4327TIP3    H236435   0.702   1.460   0.282
 4328TIP3   OH236436   0.320   1.070   0.321
 4328TIP3    H136437   0.267   1.139   0.369
 4328TIP3    H236438   0.385   1.127   0.278
 4329TIP3   OH236439   1.148   0.333   1.298
 4329TIP3    H136440   1.205   0.387   1.356
 4329TIP3    H236441   1.095   0.280   1.362
 4330TIP3   OH236442   1.193   0.341   0.461
 4330TIP3    H136443   1.207   0.416   0.401
 4330TIP3    H236444   1.241   0.372   0.542
 4331TIP3   OH236445   0.977   1.522   0.333
 4331TIP3    H136446   0.887   1.562   0.339
 4331TIP3    H236447   1.011   1.561   0.250
 4332TIP3   OH236448   0.894   0.530   0.517
 4332TIP3    H136449   0.979   0.579   0.525
 4332TIP3    H236450   0.880   0.492   0.606
 4333TIP3   OH236451   0.986   0.604   1.451
 4333TIP3    H136452   0.994   0.676   1.517
 4333TIP3    H236453   0.980   0.524   1.507
 4334TIP3   OH236454   1.010   0.192   0.601
 4334TIP3    H136455   0.985   0.254   0.672
 4334TIP3    H236456   1.084   0.240   0.557
 4335TIP3   OH236457   0.722   1.615   0.332
 4335TIP3    H136458   0.749   1.697   0.284
 4335TIP3    H236459   0.682   1.657   0.411
 4336TIP3   OH236460   0.532   0.336   0.290
 4336TIP3    H136461   0.545   0.426   0.326
 4336TIP3    H236462   0.615   0.298   0.324
 4337TIP3   OH236463   1.548   0.374   1.479
 4337TIP3    H136464   1.456   0.393   1.455
 4337TIP3    H236465   1.590   0.375   1.392
 4338TIP3   OH236466   1.454   0.737   0.904
 4338TIP3    H136467   1.382   0.677   0.929
 4338TIP3    H236468   1.527   0.701   0.959
 4339TIP3   OH236469   0.428   1.359   0.136
 4339TIP3    H136470   0.486   1.396   0.204
 4339TIP3    H236471   0.488   1.294   0.093
 4340TIP3   OH236472   0.325   0.660   0.117
 4340TIP3    H136473   0.261   0.735   0.121
 4340TIP3    H236474   0.277   0.593   0.065
 4341TIP3   OH236475   1.572   1.684   1.058
 4341TIP3    H136476   1.574   1.765   1.001
 4341TIP3    H236477   1.665   1.688   1.091
 4342TIP3   OH236478   0.372   0.157   0.942
 4342TIP3    H136479   0.351   0.166   0.846
 4342TIP3    H236480   0.357   0.061   0.952
 4343TIP3   OH236481   0.185   1.498   0.570
 4343TIP3    H136482   0.109   1.554   0.552
 4343TIP3    H236483   0.249   1.536   0.508
 4344TIP3   OH236484   0.168   1.755   1.720
 4344TIP3    H136485   0.227   1.753   1.797
 4344TIP3    H236486   0.160   1.659   1.708
 4345TIP3   OH236487   0.620   1.625   1.864
 4345TIP3    H136488   0.703   1.573   1.854
 4345TIP3    H236489   0.569   1.594   1.786
 4346TIP3   OH236490   1.080   1.616   0.101
 4346TIP3    H136491   1.016   1.562   0.049
 4346TIP3    H236492   1.143   1.638   0.031
 4347TIP3   OH236493   1.217   1.533   1.756
 4347TIP3    H136494   1.213   1.443   1.791
 4347TIP3    H236495   1.307   1.555   1.789
 4348TIP3   OH236496   1.488   1.555   0.017
 4348TIP3    H136497   1.475   1.480   0.080
 4348TIP3    H236498   1.585   1.557   0.013
 4349TIP3   OH236499   0.188   1.169   1.826
 4349TIP3    H136500   0.208   1.099   1.893
 4349TIP3    H236501   0.096   1.142   1.803
 4350TIP3   OH236502   0.596   1.173   0.030
 4350TIP3    H136503   0.630   1.132   0.111
 4350TIP3    H236504   0.618   1.104  -0.036
 4351TIP3   OH236505   0.772   1.138   1.682
 4351TIP3    H136506   0.745   1.201   1.612
 4351TIP3    H236507   0.774   1.050   1.639
 4352TIP3   OH236508   1.353   1.116   1.484
 4352TIP3    H136509   1.436   1.126   1.532
 4352TIP3    H236510   1.306   1.196   1.510
 4353TIP3   OH236511   0.194   0.836   1.753
 4353TIP3    H136512   0.264   0.768   1.758
 4353TIP3    H236513   0.193   0.864   1.846
 4354TIP3   OH236514   0.688   0.991   0.242
 4354TIP3    H136515   0.624   0.942   0.295
 4354TIP3    H236516   0.730   0.922   0.187
 4355TIP3   OH236517   0.785   0.815   0.036
 4355TIP3    H136518   0.823   0.824  -0.053
 4355TIP3    H236519   0.868   0.809   0.089
 4356TIP3   OH236520   1.684   1.059   8.479
 4356TIP3    H136521   1.650   1.042   8.390
 4356TIP3    H236522   1.686   1.155   8.483
 4357TIP3   OH236523   0.640   0.555   1.550
 4357TIP3    H136524   0.669   0.477   1.498
 4357TIP3    H236525   0.611   0.613   1.478
 4358TIP3   OH236526   0.677   0.351   1.360
 4358TIP3    H136527   0.723   0.372   1.276
 4358TIP3    H236528   0.583   0.348   1.335
 4359TIP3   OH236529   0.849   0.959   1.389
 4359TIP3    H136530   0.907   0.898   1.340
 4359TIP3    H236531   0.778   0.977   1.325
 4360TIP3   OH236532   0.440   0.636   1.775
 4360TIP3    H136533   0.387   0.563   1.815
 4360TIP3    H236534   0.502   0.588   1.719
 4361TIP3   OH236535   0.718   0.085   1.367
 4361TIP3    H136536   0.718   0.184   1.372
 4361TIP3    H236537   0.623   0.069   1.368
 4362TIP3   OH236538   0.876   0.442   1.681
 4362TIP3    H136539   0.853   0.427   1.774
 4362TIP3    H236540   0.791   0.469   1.643
 4363TIP3   OH236541   1.178   0.428   1.660
 4363TIP3    H136542   1.083   0.429   1.682
 4363TIP3    H236543   1.216   0.397   1.746
 4364TIP3   OH236544   1.294   0.321   1.881
 4364TIP3    H136545   1.286   0.223   1.881
 4364TIP3    H236546   1.282   0.339   1.977
 4365TIP3   OH236547   0.294   0.416   1.825
 4365TIP3    H136548   0.309   0.321   1.818
 4365TIP3    H236549   0.260   0.423   1.918
 4366TIP3   OH236550   0.745   0.086   1.635
 4366TIP3    H136551   0.732  -0.012   1.639
 4366TIP3    H236552   0.796   0.094   1.552
 4367TIP3   OH236553   0.850   0.159   1.876
 4367TIP3    H136554   0.844   0.107   1.793
 4367TIP3    H236555   0.790   0.234   1.856
 4368TIP3   OH236556   0.787   1.849   0.231
 4368TIP3    H136557   0.850   1.909   0.187
 4368TIP3    H236558   0.704   1.900   0.230
 4369TIP3   OH236559   0.174   1.326   0.077
 4369TIP3    H136560   0.257   1.336   0.129
 4369TIP3    H236561   0.194   1.379  -0.002
 4370TIP3   OH236562   0.034   1.837   0.586
 4370TIP3    H136563  -0.057   1.865   0.610
 4370TIP3    H236564   0.064   1.795   0.669
 4371TIP3   OH236565   0.140   1.695   0.804
 4371TIP3    H136566   0.170   1.603   0.790
 4371TIP3    H236567   0.189   1.722   0.883
 4372TIP3   OH236568   1.836   1.764   1.093
 4372TIP3    H136569   1.857   1.834   1.158
 4372TIP3    H236570   1.906   1.776   1.027
 4373TIP3   OH236571   1.804   1.667   1.392
 4373TIP3    H136572   1.744   1.618   1.331
 4373TIP3    H236573   1.751   1.662   1.474
 4374TIP3   OH236574   1.619   1.273   1.892
 4374TIP3    H136575   1.530   1.299   1.924
 4374TIP3    H236576   1.675   1.350   1.914
 4375TIP3   OH236577   1.754   1.131   0.400
 4375TIP3    H136578   1.847   1.158   0.413
 4375TIP3    H236579   1.745   1.063   0.472
 4376TIP3   OH236580   1.789   0.935   0.587
 4376TIP3    H136581   1.721   0.876   0.629
 4376TIP3    H236582   1.852   0.943   0.661
 4377TIP3   OH236583   1.768   1.186   1.082
 4377TIP3    H136584   1.836   1.115   1.068
 4377TIP3    H236585   1.807   1.262   1.036
 4378TIP3   OH236586   1.617   1.483   1.309
 4378TIP3    H136587   1.550   1.499   1.378
 4378TIP3    H236588   1.564   1.452   1.234
 4379TIP3   OH236589   1.797   0.902   0.233
 4379TIP3    H136590   1.742   0.926   0.156
 4379TIP3    H236591   1.787   0.980   0.291
 4380TIP3   OH236592   1.575   0.640   0.110
 4380TIP3    H136593   1.649   0.671   0.055
 4380TIP3    H236594   1.573   0.547   0.078
 4381TIP3   OH236595   1.609   0.771   0.693
 4381TIP3    H136596   1.566   0.695   0.649
 4381TIP3    H236597   1.562   0.771   0.780
 4382TIP3   OH236598   0.135   1.033   1.053
 4382TIP3    H136599   0.176   1.008   0.969
 4382TIP3    H236600   0.205   0.999   1.113
 4383TIP3   OH236601   1.662   0.957   1.622
 4383TIP3    H136602   1.713   0.890   1.672
 4383TIP3    H236603   1.699   1.042   1.653
 4384TIP3   OH236604   1.808   0.743   1.733
 4384TIP3    H136605   1.712   0.728   1.722
 4384TIP3    H236606   1.844   0.654   1.715
 4385TIP3   OH236607   1.577   0.392   0.005
 4385TIP3    H136608   1.600   0.315   0.062
 4385TIP3    H236609   1.479   0.389   0.005
 4386TIP3   OH236610   1.525   0.582   0.524
 4386TIP3    H136611   1.568   0.496   0.548
 4386TIP3    H236612   1.578   0.609   0.448
 4387TIP3   OH236613   1.623   0.610   1.063
 4387TIP3    H136614   1.721   0.620   1.055
 4387TIP3    H236615   1.612   0.604   1.159
 4388TIP3   OH236616   1.639   0.670   1.329
 4388TIP3    H136617   1.557   0.687   1.380
 4388TIP3    H236618   1.673   0.761   1.315
 4389TIP3   OH236619   0.088   0.525   1.660
 4389TIP3    H136620   0.167   0.544   1.715
 4389TIP3    H236621   0.078   0.431   1.680
 4390TIP3   OH236622   1.855   0.131   1.848
 4390TIP3    H136623   1.943   0.111   1.815
 4390TIP3    H236624   1.825   0.201   1.786
 4391TIP3   OH236625   1.611   0.330   0.565
 4391TIP3    H136626   1.638   0.279   0.644
 4391TIP3    H236627   1.549   0.267   0.520
 4392TIP3   OH236628   0.155   0.288   1.046
 4392TIP3    H136629   0.098   0.219   1.082
 4392TIP3    H236630   0.237   0.236   1.033
 4393TIP3   OH236631   0.061   0.704   1.091
 4393TIP3    H136632   0.083   0.790   1.050
 4393TIP3    H236633   0.023   0.736   1.174
 4394TIP3   OH236634   1.779   0.341   1.683
 4394TIP3    H136635   1.700   0.349   1.743
 4394TIP3    H236636   1.740   0.288   1.611
 4395TIP3   OH236637   1.823   0.286   0.161
 4395TIP3    H136638   1.861   0.225   0.097
 4395TIP3    H236639   1.876   0.366   0.144
 4396TIP3   OH236640   0.130   0.253   0.517
 4396TIP3    H136641   0.032   0.251   0.514
 4396TIP3    H236642   0.155   0.325   0.457
 4397TIP3   OH236643   1.539   1.753   0.713
 4397TIP3    H136644   1.568   1.790   0.628
 4397TIP3    H236645   1.533   1.832   0.770
 4398TIP3   OH236646   0.079   0.155   1.329
 4398TIP3    H136647   0.107   0.232   1.381
 4398TIP3    H236648  -0.009   0.186   1.297
 4399TIP3   OH236649   0.241   1.451   1.716
 4399TIP3    H136650   0.212   1.386   1.650
 4399TIP3    H236651   0.237   1.397   1.795
 4400TIP3   OH236652   0.547   1.616   1.383
 4400TIP3    H136653   0.538   1.699   1.332
 4400TIP3    H236654   0.641   1.596   1.367
 4401TIP3   OH236655   0.965   1.704   1.623
 4401TIP3    H136656   0.973   1.679   1.717
 4401TIP3    H236657   1.050   1.753   1.608
 4402TIP3   OH236658   1.168   1.874   1.602
 4402TIP3    H136659   1.236   1.845   1.540
 4402TIP3    H236660   1.218   1.907   1.679
 4403TIP3   OH236661   1.717   0.149   1.492
 4403TIP3    H136662   1.640   0.195   1.454
 4403TIP3    H236663   1.696   0.056   1.476
 4404TIP3   OH236664   0.287   1.899   1.356
 4404TIP3    H136665   0.201   1.940   1.331
 4404TIP3    H236666   0.274   1.882   1.450
 4405TIP3   OH236667   0.527   1.845   1.245
 4405TIP3    H136668   0.431   1.851   1.271
 4405TIP3    H236669   0.529   1.903   1.167
 4406TIP3   OH236670   0.985   1.800   1.182
 4406TIP3    H136671   0.941   1.846   1.109
 4406TIP3    H236672   0.999   1.875   1.245
 4407TIP3   OH236673   1.205   1.691   1.321
 4407TIP3    H136674   1.136   1.722   1.259
 4407TIP3    H236675   1.280   1.742   1.288
 4408TIP3   OH236676   1.540   1.810   1.292
 4408TIP3    H136677   1.534   1.900   1.253
 4408TIP3    H236678   1.530   1.757   1.211
 4409TIP3   OH236679   0.263   1.759   1.037
 4409TIP3    H136680   0.225   1.711   1.113
 4409TIP3    H236681   0.336   1.699   1.010
 4410TIP3   OH236682   0.435   1.596   0.927
 4410TIP3    H136683   0.417   1.505   0.959
 4410TIP3    H236684   0.523   1.612   0.969
 4411TIP3   OH236685   0.673   1.611   1.068
 4411TIP3    H136686   0.711   1.523   1.049
 4411TIP3    H236687   0.712   1.629   1.155
 4412TIP3   OH236688   1.061   0.254   0.909
 4412TIP3    H136689   0.992   0.188   0.922
 4412TIP3    H236690   1.120   0.210   0.844
 4413TIP3   OH236691   1.507   0.140   0.930
 4413TIP3    H136692   1.572   0.135   0.859
 4413TIP3    H236693   1.423   0.156   0.881
 4414TIP3   OH236694   1.760   0.191   0.746
 4414TIP3    H136695   1.792   0.165   0.657
 4414TIP3    H236696   1.809   0.277   0.757
 4415TIP3   OH236697   0.253   0.136   0.712
 4415TIP3    H136698   0.193   0.164   0.640
 4415TIP3    H236699   0.269   0.042   0.687
 4416TIP3   OH236700   0.051   0.152   0.254
 4416TIP3    H136701   0.136   0.154   0.206
 4416TIP3    H236702   0.069   0.208   0.332
 4417TIP3   OH236703   0.755   0.096   0.652
 4417TIP3    H136704   0.837   0.133   0.614
 4417TIP3    H236705   0.780   0.096   0.747
 4418TIP3   OH236706   1.274   0.131   0.789
 4418TIP3    H136707   1.282   0.150   0.695
 4418TIP3    H236708   1.268   0.033   0.792
 4419TIP3   OH236709   1.431   0.169   0.440
 4419TIP3    H136710   1.345   0.201   0.411
 4419TIP3    H236711   1.425   0.074   0.420
 4420TIP3   OH236712   0.194   1.653   0.267
 4420TIP3    H136713   0.102   1.656   0.299
 4420TIP3    H236714   0.239   1.721   0.323
 4421TIP3   OH236715   0.305   0.187   0.123
 4421TIP3    H136716   0.375   0.193   0.056
 4421TIP3    H236717   0.350   0.236   0.194
 4422TIP3   OH236718   0.822   0.312   0.363
 4422TIP3    H136719   0.882   0.250   0.408
 4422TIP3    H236720   0.833   0.392   0.419
 4423TIP3   OH236721   1.094   1.875   0.180
 4423TIP3    H136722   1.180   1.834   0.155
 4423TIP3    H236723   1.045   1.790   0.169
 4424TIP3   OH236724   1.681   1.697   0.488
 4424TIP3    H136725   1.672   1.620   0.427
 4424TIP3    H236726   1.669   1.771   0.425
 4425TIP3   OH236727   0.315   0.200   1.610
 4425TIP3    H136728   0.261   0.120   1.614
 4425TIP3    H236729   0.375   0.182   1.686
 4426TIP3   OH236730   0.476   0.095   1.810
 4426TIP3    H136731   0.565   0.098   1.771
 4426TIP3    H236732   0.469   0.000   1.838
 4427TIP3   OH236733   0.369   1.788   0.090
 4427TIP3    H136734   0.312   1.767   0.167
 4427TIP3    H236735   0.407   1.701   0.075
 4428TIP3   OH236736   1.266   0.065   1.822
 4428TIP3    H136737   1.267  -0.029   1.849
 4428TIP3    H236738   1.309   0.063   1.735
 4429TIP3   OH236739   1.661   1.604   1.646
 4429TIP3    H136740   1.574   1.602   1.599
 4429TIP3    H236741   1.634   1.655   1.724
 4430TIP3   OH236742   3.089   0.999   0.663
 4430TIP3    H136743   3.058   1.092   0.652
 4430TIP3    H236744   3.015   0.949   0.626
 4431TIP3   OH236745   2.979   0.892   1.008
 4431TIP3    H136746   2.975   0.853   1.097
 4431TIP3    H236747   2.905   0.847   0.962
 4432TIP3   OH236748   2.167   0.895   1.154
 4432TIP3    H136749   2.173   0.829   1.224
 4432TIP3    H236750   2.236   0.957   1.183
 4433TIP3   OH236751   3.287   1.207   0.864
 4433TIP3    H136752   3.253   1.132   0.914
 4433TIP3    H236753   3.297   1.272   0.936
 4434TIP3   OH236754   2.284   1.369   1.025
 4434TIP3    H136755   2.254   1.282   0.991
 4434TIP3    H236756   2.380   1.353   1.017
 4435TIP3   OH236757   1.952   0.644   0.577
 4435TIP3    H136758   1.915   0.721   0.620
 4435TIP3    H236759   1.872   0.603   0.540
 4436TIP3   OH236760   1.965   0.947   0.807
 4436TIP3    H136761   1.990   0.851   0.811
 4436TIP3    H236762   2.051   0.991   0.793
 4437TIP3   OH236763   3.052   1.759   0.869
 4437TIP3    H136764   3.102   1.694   0.815
 4437TIP3    H236765   3.004   1.697   0.926
 4438TIP3   OH236766   2.770   1.163   1.124
 4438TIP3    H136767   2.774   1.152   1.028
 4438TIP3    H236768   2.864   1.186   1.139
 4439TIP3   OH236769   3.647   0.310   1.130
 4439TIP3    H136770   3.652   0.378   1.202
 4439TIP3    H236771   3.718   0.343   1.072
 4440TIP3   OH236772   3.137   0.625   1.134
 4440TIP3    H136773   3.162   0.531   1.142
 4440TIP3    H236774   3.112   0.630   1.040
 4441TIP3   OH236775   2.451   0.402   0.801
 4441TIP3    H136776   2.465   0.486   0.752
 4441TIP3    H236777   2.396   0.354   0.735
 4442TIP3   OH236778   3.207   0.412   0.658
 4442TIP3    H136779   3.245   0.402   0.748
 4442TIP3    H236780   3.267   0.481   0.625
 4443TIP3   OH236781   2.056   0.699   0.867
 4443TIP3    H136782   2.127   0.692   0.932
 4443TIP3    H236783   2.090   0.638   0.798
 4444TIP3   OH236784   2.586   0.827   0.841
 4444TIP3    H136785   2.666   0.785   0.879
 4444TIP3    H236786   2.570   0.761   0.770
 4445TIP3   OH236787   3.675   0.466   1.344
 4445TIP3    H136788   3.628   0.548   1.318
 4445TIP3    H236789   3.683   0.483   1.440
 4446TIP3   OH236790   2.334   0.328   1.215
 4446TIP3    H136791   2.299   0.377   1.137
 4446TIP3    H236792   2.253   0.320   1.271
 4447TIP3   OH236793   3.004   1.239   0.575
 4447TIP3    H136794   2.987   1.235   0.479
 4447TIP3    H236795   2.964   1.325   0.599
 4448TIP3   OH236796   2.531   1.070   1.217
 4448TIP3    H136797   2.475   1.141   1.255
 4448TIP3    H236798   2.609   1.119   1.184
 4449TIP3   OH236799   3.366   0.431   0.864
 4449TIP3    H136800   3.354   0.350   0.918
 4449TIP3    H236801   3.450   0.462   0.902
 4450TIP3   OH236802   2.288   0.505   0.997
 4450TIP3    H136803   2.329   0.591   1.016
 4450TIP3    H236804   2.347   0.473   0.924
 4451TIP3   OH236805   2.409   1.300   1.313
 4451TIP3    H136806   2.395   1.386   1.269
 4451TIP3    H236807   2.326   1.293   1.366
 4452TIP3   OH236808   2.012   1.214   0.410
 4452TIP3    H136809   1.998   1.256   0.323
 4452TIP3    H236810   2.014   1.289   0.471
 4453TIP3   OH236811   3.380   1.401   1.081
 4453TIP3    H136812   3.286   1.424   1.102
 4453TIP3    H236813   3.407   1.482   1.035
 4454TIP3   OH236814   3.431   0.184   1.246
 4454TIP3    H136815   3.361   0.209   1.183
 4454TIP3    H236816   3.509   0.205   1.190
 4455TIP3   OH236817   2.710   0.092   0.927
 4455TIP3    H136818   2.718   0.004   0.968
 4455TIP3    H236819   2.648   0.138   0.989
 4456TIP3   OH236820   3.198   1.587   0.715
 4456TIP3    H136821   3.234   1.500   0.690
 4456TIP3    H236822   3.280   1.642   0.707
 4457TIP3   OH236823   3.338   1.360   0.595
 4457TIP3    H136824   3.318   1.293   0.527
 4457TIP3    H236825   3.322   1.309   0.677
 4458TIP3   OH236826   3.553   1.265   1.451
 4458TIP3    H136827   3.576   1.209   1.374
 4458TIP3    H236828   3.542   1.352   1.406
 4459TIP3   OH236829   2.935   0.919   0.410
 4459TIP3    H136830   2.865   0.985   0.392
 4459TIP3    H236831   3.015   0.971   0.385
 4460TIP3   OH236832   2.931   0.829   0.144
 4460TIP3    H136833   2.982   0.854   0.223
 4460TIP3    H236834   2.966   0.740   0.127
 4461TIP3   OH236835   3.680   0.889   1.227
 4461TIP3    H136836   3.634   0.972   1.246
 4461TIP3    H236837   3.747   0.920   1.161
 4462TIP3   OH236838   3.319   0.931   0.516
 4462TIP3    H136839   3.246   0.958   0.575
 4462TIP3    H236840   3.374   0.878   0.579
 4463TIP3   OH236841   3.271   0.752   1.445
 4463TIP3    H136842   3.238   0.804   1.520
 4463TIP3    H236843   3.203   0.772   1.378
 4464TIP3   OH236844   2.423   0.996   0.695
 4464TIP3    H136845   2.410   0.959   0.605
 4464TIP3    H236846   2.485   0.934   0.736
 4465TIP3   OH236847   2.574   1.336   0.972
 4465TIP3    H136848   2.599   1.320   0.880
 4465TIP3    H236849   2.648   1.300   1.023
 4466TIP3   OH236850   2.446   0.873   1.072
 4466TIP3    H136851   2.494   0.879   0.986
 4466TIP3    H236852   2.483   0.948   1.123
 4467TIP3   OH236853   3.145   1.461   1.171
 4467TIP3    H136854   3.114   1.530   1.235
 4467TIP3    H236855   3.084   1.387   1.187
 4468TIP3   OH236856   2.591   1.321   1.538
 4468TIP3    H136857   2.535   1.378   1.596
 4468TIP3    H236858   2.537   1.317   1.456
 4469TIP3   OH236859   3.176   0.876   0.293
 4469TIP3    H136860   3.235   0.895   0.370
 4469TIP3    H236861   3.216   0.933   0.225
 4470TIP3   OH236862   2.281   0.962   1.391
 4470TIP3    H136863   2.300   1.051   1.425
 4470TIP3    H236864   2.189   0.947   1.422
 4471TIP3   OH236865   2.919   1.483   0.644
 4471TIP3    H136866   3.001   1.532   0.654
 4471TIP3    H236867   2.881   1.522   0.563
 4472TIP3   OH236868   2.413   1.496   1.632
 4472TIP3    H136869   2.402   1.522   1.538
 4472TIP3    H236870   2.319   1.483   1.656
 4473TIP3   OH236871   3.553   0.083   0.295
 4473TIP3    H136872   3.484   0.127   0.348
 4473TIP3    H236873   3.608   0.159   0.269
 4474TIP3   OH236874   2.334   0.906   0.456
 4474TIP3    H136875   2.292   0.990   0.426
 4474TIP3    H236876   2.268   0.839   0.434
 4475TIP3   OH236877   3.660   1.482   0.161
 4475TIP3    H136878   3.695   1.574   0.157
 4475TIP3    H236879   3.742   1.430   0.142
 4476TIP3   OH236880   1.974   1.165   1.383
 4476TIP3    H136881   1.901   1.154   1.320
 4476TIP3    H236882   2.010   1.074   1.378
 4477TIP3   OH236883   1.941   1.437   1.034
 4477TIP3    H136884   2.014   1.374   1.039
 4477TIP3    H236885   1.969   1.504   1.097
 4478TIP3   OH236886   3.759   1.474   1.641
 4478TIP3    H136887   3.758   1.376   1.642
 4478TIP3    H236888   3.683   1.496   1.697
 4479TIP3   OH236889   2.808   1.471   1.494
 4479TIP3    H136890   2.878   1.466   1.563
 4479TIP3    H236891   2.736   1.410   1.522
 4480TIP3   OH236892   2.918   1.821   0.446
 4480TIP3    H136893   2.906   1.852   0.354
 4480TIP3    H236894   2.896   1.903   0.496
 4481TIP3   OH236895   2.254   1.700   0.666
 4481TIP3    H136896   2.281   1.666   0.754
 4481TIP3    H236897   2.165   1.660   0.655
 4482TIP3   OH236898   3.208   1.760   0.167
 4482TIP3    H136899   3.210   1.680   0.111
 4482TIP3    H236900   3.147   1.737   0.239
 4483TIP3   OH236901   3.166   1.723   0.437
 4483TIP3    H136902   3.073   1.756   0.444
 4483TIP3    H236903   3.164   1.658   0.508
 4484TIP3   OH236904   3.418   0.626   1.668
 4484TIP3    H136905   3.400   0.645   1.574
 4484TIP3    H236906   3.427   0.528   1.667
 4485TIP3   OH236907   2.179   1.324   1.447
 4485TIP3    H136908   2.193   1.306   1.543
 4485TIP3    H236909   2.100   1.269   1.429
 4486TIP3   OH236910   2.483   0.194   1.042
 4486TIP3    H136911   2.416   0.217   0.976
 4486TIP3    H236912   2.438   0.229   1.122
 4487TIP3   OH236913   2.858   0.152   1.467
 4487TIP3    H136914   2.924   0.080   1.457
 4487TIP3    H236915   2.800   0.128   1.394
 4488TIP3   OH236916   3.234   0.485   1.433
 4488TIP3    H136917   3.185   0.485   1.517
 4488TIP3    H236918   3.252   0.580   1.417
 4489TIP3   OH236919   3.303   1.014   0.106
 4489TIP3    H136920   3.305   1.031   0.011
 4489TIP3    H236921   3.384   1.059   0.136
 4490TIP3   OH236922   2.881   0.375   0.142
 4490TIP3    H136923   2.838   0.354   0.227
 4490TIP3    H236924   2.851   0.302   0.086
 4491TIP3   OH236925   2.473   0.639   1.184
 4491TIP3    H136926   2.377   0.629   1.201
 4491TIP3    H236927   2.471   0.730   1.146
 4492TIP3   OH236928   2.471   0.635   0.661
 4492TIP3    H136929   2.374   0.627   0.650
 4492TIP3    H236930   2.500   0.620   0.569
 4493TIP3   OH236931   3.030   0.696   0.539
 4493TIP3    H136932   2.994   0.775   0.492
 4493TIP3    H236933   3.082   0.655   0.468
 4494TIP3   OH236934   2.862   0.706   1.696
 4494TIP3    H136935   2.838   0.624   1.746
 4494TIP3    H236936   2.918   0.749   1.765
 4495TIP3   OH236937   3.102   0.665   0.855
 4495TIP3    H136938   3.103   0.739   0.791
 4495TIP3    H236939   3.096   0.590   0.796
 4496TIP3   OH236940   2.238   0.636   1.324
 4496TIP3    H136941   2.207   0.701   1.388
 4496TIP3    H236942   2.176   0.561   1.336
 4497TIP3   OH236943   2.550   0.394   0.059
 4497TIP3    H136944   2.513   0.354   0.141
 4497TIP3    H236945   2.531   0.488   0.071
 4498TIP3   OH236946   1.922   0.398   0.744
 4498TIP3    H136947   1.975   0.391   0.826
 4498TIP3    H236948   1.970   0.342   0.681
 4499TIP3   OH236949   2.029   0.453   0.295
 4499TIP3    H136950   2.066   0.503   0.220
 4499TIP3    H236951   1.973   0.523   0.336
 4500TIP3   OH236952   3.003   0.802   1.282
 4500TIP3    H136953   3.065   0.741   1.235
 4500TIP3    H236954   2.948   0.739   1.332
 4501TIP3   OH236955   2.742   0.382   0.779
 4501TIP3    H136956   2.649   0.358   0.796
 4501TIP3    H236957   2.786   0.352   0.860
 4502TIP3   OH236958   2.199   0.562   0.656
 4502TIP3    H136959   2.116   0.580   0.605
 4502TIP3    H236960   2.232   0.479   0.614
 4503TIP3   OH236961   2.529   0.581   0.398
 4503TIP3    H136962   2.624   0.592   0.418
 4503TIP3    H236963   2.516   0.635   0.318
 4504TIP3   OH236964   3.162   0.327   1.068
 4504TIP3    H136965   3.096   0.308   1.137
 4504TIP3    H236966   3.139   0.262   0.998
 4505TIP3   OH236967   2.461   0.682   0.152
 4505TIP3    H136968   2.395   0.678   0.081
 4505TIP3    H236969   2.536   0.730   0.110
 4506TIP3   OH236970   3.433   1.927   1.754
 4506TIP3    H136971   3.483   1.956   1.676
 4506TIP3    H236972   3.505   1.907   1.817
 4507TIP3   OH236973   2.221   1.175   1.687
 4507TIP3    H136974   2.304   1.167   1.738
 4507TIP3    H236975   2.163   1.114   1.735
 4508TIP3   OH236976   2.818   0.682   0.916
 4508TIP3    H136977   2.905   0.657   0.881
 4508TIP3    H236978   2.813   0.612   0.982
 4509TIP3   OH236979   2.301   0.318   0.599
 4509TIP3    H136980   2.258   0.243   0.645
 4509TIP3    H236981   2.345   0.276   0.524
 4510TIP3   OH236982   2.712   0.488   1.191
 4510TIP3    H136983   2.650   0.562   1.177
 4510TIP3    H236984   2.783   0.532   1.239
 4511TIP3   OH236985   2.763   1.130   0.401
 4511TIP3    H136986   2.689   1.077   0.366
 4511TIP3    H236987   2.726   1.160   0.487
 4512TIP3   OH236988   3.475   1.079   1.272
 4512TIP3    H136989   3.535   1.123   1.207
 4512TIP3    H236990   3.404   1.052   1.210
 4513TIP3   OH236991   3.156   0.430   0.134
 4513TIP3    H136992   3.058   0.428   0.128
 4513TIP3    H236993   3.170   0.486   0.212
 4514TIP3   OH236994   2.931   1.182   1.499
 4514TIP3    H136995   2.865   1.115   1.524
 4514TIP3    H236996   2.891   1.264   1.531
 4515TIP3   OH236997   3.206   0.587   0.353
 4515TIP3    H136998   3.275   0.592   0.423
 4515TIP3    H236999   3.243   0.651   0.290
 4516TIP3   OH237000   2.278   1.089   0.932
 4516TIP3    H137001   2.329   1.074   0.849
 4516TIP3    H237002   2.297   1.008   0.984
 4517TIP3   OH237003   2.963   1.247   0.282
 4517TIP3    H137004   2.941   1.337   0.312
 4517TIP3    H237005   2.884   1.196   0.311
 4518TIP3   OH237006   2.002   0.891   1.433
 4518TIP3    H137007   1.971   0.847   1.514
 4518TIP3    H237008   1.927   0.873   1.371
 4519TIP3   OH237009   2.683   0.894   1.631
 4519TIP3    H137010   2.645   0.825   1.575
 4519TIP3    H237011   2.732   0.841   1.697
 4520TIP3   OH237012   3.674   0.647   0.347
 4520TIP3    H137013   3.638   0.618   0.261
 4520TIP3    H237014   3.697   0.740   0.325
 4521TIP3   OH237015   3.745   1.202   1.615
 4521TIP3    H137016   3.661   1.227   1.570
 4521TIP3    H237017   3.802   1.185   1.537
 4522TIP3   OH237018   3.492   1.519   0.364
 4522TIP3    H137019   3.490   1.437   0.417
 4522TIP3    H237020   3.544   1.491   0.284
 4523TIP3   OH237021   3.254   0.978   1.050
 4523TIP3    H137022   3.163   0.949   1.025
 4523TIP3    H237023   3.309   0.927   0.987
 4524TIP3   OH237024   2.508   1.439   0.662
 4524TIP3    H137025   2.522   1.534   0.640
 4524TIP3    H237026   2.415   1.432   0.638
 4525TIP3   OH237027   2.092   0.925   0.135
 4525TIP3    H137028   2.146   0.976   0.201
 4525TIP3    H237029   2.001   0.940   0.165
 4526TIP3   OH237030   2.631   1.195   0.630
 4526TIP3    H137031   2.589   1.284   0.637
 4526TIP3    H237032   2.574   1.138   0.684
 4527TIP3   OH237033   2.692   1.629   1.299
 4527TIP3    H137034   2.770   1.680   1.272
 4527TIP3    H237035   2.733   1.576   1.372
 4528TIP3   OH237036   2.525   1.693   0.587
 4528TIP3    H137037   2.429   1.705   0.604
 4528TIP3    H237038   2.559   1.775   0.630
 4529TIP3   OH237039   3.023   1.213   1.209
 4529TIP3    H137040   3.004   1.195   1.303
 4529TIP3    H237041   3.082   1.139   1.186
 4530TIP3   OH237042   3.271   1.328   0.189
 4530TIP3    H137043   3.310   1.275   0.262
 4530TIP3    H237044   3.186   1.281   0.179
 4531TIP3   OH237045   3.337   1.624   1.495
 4531TIP3    H137046   3.242   1.624   1.523
 4531TIP3    H237047   3.337   1.703   1.436
 4532TIP3   OH237048   3.715   1.741   0.178
 4532TIP3    H137049   3.768   1.784   0.110
 4532TIP3    H237050   3.662   1.817   0.211
 4533TIP3   OH237051   2.159   0.394   1.415
 4533TIP3    H137052   2.090   0.442   1.465
 4533TIP3    H237053   2.174   0.318   1.476
 4534TIP3   OH237054   3.370   1.163   0.384
 4534TIP3    H137055   3.348   1.078   0.429
 4534TIP3    H237056   3.467   1.162   0.397
 4535TIP3   OH237057   2.118   1.564   1.260
 4535TIP3    H137058   2.164   1.478   1.259
 4535TIP3    H237059   2.194   1.625   1.270
 4536TIP3   OH237060   2.559   1.378   0.258
 4536TIP3    H137061   2.628   1.328   0.306
 4536TIP3    H237062   2.579   1.471   0.286
 4537TIP3   OH237063   2.226   1.101   0.293
 4537TIP3    H137064   2.163   1.144   0.355
 4537TIP3    H237065   2.275   1.178   0.256
 4538TIP3   OH237066   3.018   0.332   1.335
 4538TIP3    H137067   3.086   0.371   1.392
 4538TIP3    H237068   2.966   0.279   1.398
 4539TIP3   OH237069   3.068   0.319   0.447
 4539TIP3    H137070   3.085   0.391   0.385
 4539TIP3    H237071   3.122   0.346   0.525
 4540TIP3   OH237072   2.878   1.508   0.359
 4540TIP3    H137073   2.800   1.565   0.355
 4540TIP3    H237074   2.928   1.539   0.281
 4541TIP3   OH237075   2.786   0.525   0.541
 4541TIP3    H137076   2.863   0.582   0.561
 4541TIP3    H237077   2.768   0.479   0.627
 4542TIP3   OH237078   2.862   0.598   1.443
 4542TIP3    H137079   2.871   0.645   1.530
 4542TIP3    H237080   2.926   0.526   1.451
 4543TIP3   OH237081   2.884   0.184   0.604
 4543TIP3    H137082   2.869   0.249   0.676
 4543TIP3    H237083   2.956   0.227   0.554
 4544TIP3   OH237084   2.614   1.626   0.337
 4544TIP3    H137085   2.615   1.711   0.286
 4544TIP3    H237086   2.577   1.661   0.421
 4545TIP3   OH237087   2.428   0.333   0.305
 4545TIP3    H137088   2.438   0.426   0.334
 4545TIP3    H237089   2.516   0.302   0.335
 4546TIP3   OH237090   3.458   0.385   1.527
 4546TIP3    H137091   3.369   0.404   1.490
 4546TIP3    H237092   3.497   0.335   1.453
 4547TIP3   OH237093   3.359   0.739   0.913
 4547TIP3    H137094   3.277   0.688   0.921
 4547TIP3    H237095   3.422   0.686   0.969
 4548TIP3   OH237096   2.290   1.356   0.163
 4548TIP3    H137097   2.373   1.387   0.206
 4548TIP3    H237098   2.328   1.310   0.087
 4549TIP3   OH237099   2.111   0.652   0.087
 4549TIP3    H137100   2.131   0.745   0.112
 4549TIP3    H237101   2.046   0.664   0.017
 4550TIP3   OH237102   3.468   1.689   1.079
 4550TIP3    H137103   3.424   1.749   1.016
 4550TIP3    H237104   3.559   1.725   1.070
 4551TIP3   OH237105   2.191   0.151   0.977
 4551TIP3    H137106   2.172   0.130   0.884
 4551TIP3    H237107   2.172   0.061   1.012
 4552TIP3   OH237108   2.068   1.508   0.593
 4552TIP3    H137109   1.985   1.554   0.576
 4552TIP3    H237110   2.113   1.529   0.510
 4553TIP3   OH237111   2.003   1.740   1.691
 4553TIP3    H137112   2.081   1.739   1.751
 4553TIP3    H237113   1.940   1.690   1.744
 4554TIP3   OH237114   2.493   1.693   1.822
 4554TIP3    H137115   2.539   1.642   1.889
 4554TIP3    H237116   2.466   1.627   1.755
 4555TIP3   OH237117   2.961   1.617   0.112
 4555TIP3    H137118   2.893   1.559   0.072
 4555TIP3    H237119   3.005   1.644   0.029
 4556TIP3   OH237120   3.374   1.572   0.035
 4556TIP3    H137121   3.344   1.490   0.079
 4556TIP3    H237122   3.467   1.551   0.017
 4557TIP3   OH237123   1.992   1.101   1.805
 4557TIP3    H137124   1.989   1.008   1.775
 4557TIP3    H237125   1.928   1.138   1.740
 4558TIP3   OH237126   2.450   1.138   0.032
 4558TIP3    H137127   2.496   1.109   0.113
 4558TIP3    H237128   2.511   1.107  -0.038
 4559TIP3   OH237129   2.672   1.139   1.727
 4559TIP3    H137130   2.646   1.195   1.652
 4559TIP3    H237131   2.676   1.049   1.684
 4560TIP3   OH237132   3.200   1.161   1.469
 4560TIP3    H137133   3.210   1.257   1.456
 4560TIP3    H237134   3.105   1.158   1.494
 4561TIP3   OH237135   2.121   0.829   1.749
 4561TIP3    H137136   2.134   0.736   1.726
 4561TIP3    H237137   2.070   0.818   1.830
 4562TIP3   OH237138   2.574   0.969   0.258
 4562TIP3    H137139   2.500   0.920   0.299
 4562TIP3    H237140   2.606   0.907   0.189
 4563TIP3   OH237141   2.466   0.782   1.477
 4563TIP3    H137142   2.401   0.856   1.477
 4563TIP3    H237143   2.538   0.824   1.425
 4564TIP3   OH237144   2.682   0.801   0.055
 4564TIP3    H137145   2.708   0.838  -0.031
 4564TIP3    H237146   2.769   0.803   0.101
 4565TIP3   OH237147   3.586   1.065   8.494
 4565TIP3    H137148   3.555   1.017   8.416
 4565TIP3    H237149   3.582   1.157   8.466
 4566TIP3   OH237150   2.577   0.473   1.591
 4566TIP3    H137151   2.591   0.399   1.526
 4566TIP3    H237152   2.671   0.497   1.607
 4567TIP3   OH237153   2.562   0.351   1.353
 4567TIP3    H137154   2.627   0.389   1.288
 4567TIP3    H237155   2.481   0.343   1.297
 4568TIP3   OH237156   2.689   0.899   1.351
 4568TIP3    H137157   2.774   0.933   1.320
 4568TIP3    H237158   2.628   0.965   1.313
 4569TIP3   OH237159   3.140   0.654   1.847
 4569TIP3    H137160   3.154   0.560   1.828
 4569TIP3    H237161   3.216   0.672   1.902
 4570TIP3   OH237162   3.280   0.945   1.657
 4570TIP3    H137163   3.216   0.968   1.725
 4570TIP3    H237164   3.337   0.890   1.712
 4571TIP3   OH237165   2.390   0.599   1.776
 4571TIP3    H137166   2.316   0.537   1.764
 4571TIP3    H237167   2.459   0.563   1.716
 4572TIP3   OH237168   2.638   0.091   1.307
 4572TIP3    H137169   2.636   0.188   1.309
 4572TIP3    H237170   2.544   0.072   1.318
 4573TIP3   OH237171   2.762   0.483   1.791
 4573TIP3    H137172   2.750   0.487   1.887
 4573TIP3    H237173   2.678   0.437   1.772
 4574TIP3   OH237174   3.074   0.439   1.653
 4574TIP3    H137175   2.993   0.467   1.700
 4574TIP3    H237176   3.118   0.385   1.723
 4575TIP3   OH237177   3.195   0.323   1.886
 4575TIP3    H137178   3.183   0.225   1.881
 4575TIP3    H237179   3.150   0.343   1.970
 4576TIP3   OH237180   2.167   0.425   1.781
 4576TIP3    H137181   2.171   0.351   1.716
 4576TIP3    H237182   2.141   0.378   1.863
 4577TIP3   OH237183   2.601   0.075   1.613
 4577TIP3    H137184   2.650  -0.002   1.643
 4577TIP3    H237185   2.652   0.096   1.533
 4578TIP3   OH237186   2.630   0.119   1.888
 4578TIP3    H137187   2.613   0.104   1.793
 4578TIP3    H237188   2.681   0.202   1.887
 4579TIP3   OH237189   2.623   1.864   0.225
 4579TIP3    H137190   2.708   1.903   0.196
 4579TIP3    H237191   2.557   1.924   0.189
 4580TIP3   OH237192   1.988   1.298   0.128
 4580TIP3    H137193   2.084   1.318   0.125
 4580TIP3    H237194   1.971   1.279   0.034
 4581TIP3   OH237195   1.878   1.832   0.599
 4581TIP3    H137196   1.803   1.775   0.571
 4581TIP3    H237197   1.915   1.780   0.674
 4582TIP3   OH237198   1.977   1.678   0.805
 4582TIP3    H137199   1.945   1.594   0.843
 4582TIP3    H237200   2.044   1.709   0.871
 4583TIP3   OH237201   3.728   1.771   1.119
 4583TIP3    H137202   3.761   1.851   1.166
 4583TIP3    H237203   3.769   1.782   1.032
 4584TIP3   OH237204   3.731   1.706   1.428
 4584TIP3    H137205   3.680   1.679   1.507
 4584TIP3    H237206   3.815   1.727   1.473
 4585TIP3   OH237207   3.522   1.270   1.848
 4585TIP3    H137208   3.427   1.289   1.852
 4585TIP3    H237209   3.560   1.355   1.877
 4586TIP3   OH237210   3.645   1.123   0.388
 4586TIP3    H137211   3.732   1.167   0.400
 4586TIP3    H237212   3.641   1.066   0.468
 4587TIP3   OH237213   3.670   0.939   0.583
 4587TIP3    H137214   3.599   0.882   0.623
 4587TIP3    H237215   3.731   0.945   0.660
 4588TIP3   OH237216   3.664   1.174   1.121
 4588TIP3    H137217   3.714   1.109   1.068
 4588TIP3    H237218   3.670   1.255   1.066
 4589TIP3   OH237219   3.500   1.486   1.316
 4589TIP3    H137220   3.443   1.543   1.372
 4589TIP3    H237221   3.441   1.462   1.241
 4590TIP3   OH237222   3.670   0.892   0.223
 4590TIP3    H137223   3.630   0.928   0.142
 4590TIP3    H237224   3.653   0.967   0.284
 4591TIP3   OH237225   3.446   0.633   0.106
 4591TIP3    H137226   3.518   0.697   0.097
 4591TIP3    H237227   3.475   0.563   0.045
 4592TIP3   OH237228   3.481   0.785   0.682
 4592TIP3    H137229   3.451   0.700   0.644
 4592TIP3    H237230   3.455   0.774   0.776
 4593TIP3   OH237231   1.953   0.998   1.065
 4593TIP3    H137232   1.943   0.974   0.970
 4593TIP3    H237233   2.046   0.969   1.081
 4594TIP3   OH237234   3.587   0.967   1.595
 4594TIP3    H137235   3.620   0.879   1.626
 4594TIP3    H237236   3.664   1.024   1.617
 4595TIP3   OH237237   3.671   0.716   1.659
 4595TIP3    H137238   3.584   0.678   1.683
 4595TIP3    H237239   3.732   0.644   1.690
 4596TIP3   OH237240   3.461   0.369  -0.003
 4596TIP3    H137241   3.525   0.343   0.066
 4596TIP3    H237242   3.379   0.392   0.044
 4597TIP3   OH237243   3.413   0.584   0.516
 4597TIP3    H137244   3.455   0.499   0.545
 4597TIP3    H237245   3.472   0.608   0.442
 4598TIP3   OH237246   3.527   0.592   1.077
 4598TIP3    H137247   3.622   0.615   1.088
 4598TIP3    H237248   3.501   0.582   1.170
 4599TIP3   OH237249   3.514   0.683   1.327
 4599TIP3    H137250   3.422   0.714   1.339
 4599TIP3    H237251   3.559   0.764   1.294
 4600TIP3   OH237252   1.967   0.525   1.647
 4600TIP3    H137253   2.040   0.490   1.703
 4600TIP3    H237254   1.902   0.452   1.656
 4601TIP3   OH237255   3.750   0.098   1.839
 4601TIP3    H137256   3.804   0.055   1.771
 4601TIP3    H237257   3.708   0.171   1.787
 4602TIP3   OH237258   3.512   0.339   0.555
 4602TIP3    H137259   3.526   0.289   0.639
 4602TIP3    H237260   3.446   0.281   0.511
 4603TIP3   OH237261   2.045   0.371   0.977
 4603TIP3    H137262   2.093   0.286   0.990
 4603TIP3    H237263   2.121   0.432   0.977
 4604TIP3   OH237264   1.884   0.660   1.072
 4604TIP3    H137265   1.941   0.652   0.993
 4604TIP3    H237266   1.925   0.733   1.121
 4605TIP3   OH237267   3.656   0.306   1.708
 4605TIP3    H137268   3.572   0.341   1.747
 4605TIP3    H237269   3.622   0.270   1.623
 4606TIP3   OH237270   3.679   0.288   0.160
 4606TIP3    H137271   3.730   0.244   0.089
 4606TIP3    H237272   3.750   0.343   0.201
 4607TIP3   OH237273   1.871   0.268   0.484
 4607TIP3    H137274   1.778   0.299   0.487
 4607TIP3    H237275   1.910   0.326   0.417
 4608TIP3   OH237276   3.388   1.776   0.697
 4608TIP3    H137277   3.465   1.761   0.639
 4608TIP3    H237278   3.428   1.831   0.768
 4609TIP3   OH237279   1.936   0.151   1.288
 4609TIP3    H137280   1.888   0.186   1.364
 4609TIP3    H237281   1.904   0.211   1.218
 4610TIP3   OH237282   2.160   1.450   1.706
 4610TIP3    H137283   2.068   1.480   1.717
 4610TIP3    H237284   2.167   1.377   1.769
 4611TIP3   OH237285   2.420   1.588   1.361
 4611TIP3    H137286   2.428   1.682   1.332
 4611TIP3    H237287   2.514   1.564   1.347
 4612TIP3   OH237288   3.595   0.138   1.481
 4612TIP3    H137289   3.523   0.153   1.417
 4612TIP3    H237290   3.587   0.041   1.492
 4613TIP3   OH237291   2.150   1.896   1.343
 4613TIP3    H137292   2.084   1.958   1.304
 4613TIP3    H237293   2.146   1.926   1.436
 4614TIP3   OH237294   2.396   1.836   1.249
 4614TIP3    H137295   2.304   1.861   1.275
 4614TIP3    H237296   2.412   1.896   1.174
 4615TIP3   OH237297   2.887   1.805   1.171
 4615TIP3    H137298   2.834   1.844   1.101
 4615TIP3    H237299   2.892   1.877   1.237
 4616TIP3   OH237300   3.118   1.692   1.301
 4616TIP3    H137301   3.060   1.734   1.235
 4616TIP3    H237302   3.187   1.759   1.310
 4617TIP3   OH237303   3.366   1.817   1.304
 4617TIP3    H137304   3.364   1.908   1.268
 4617TIP3    H237305   3.395   1.765   1.227
 4618TIP3   OH237306   2.131   1.739   1.016
 4618TIP3    H137307   2.104   1.679   1.087
 4618TIP3    H237308   2.219   1.703   0.991
 4619TIP3   OH237309   2.350   1.631   0.911
 4619TIP3    H137310   2.330   1.541   0.944
 4619TIP3    H237311   2.440   1.643   0.948
 4620TIP3   OH237312   2.591   1.638   1.032
 4620TIP3    H137313   2.614   1.544   1.025
 4620TIP3    H237314   2.624   1.659   1.121
 4621TIP3   OH237315   2.939   0.243   0.908
 4621TIP3    H137316   2.871   0.176   0.924
 4621TIP3    H237317   2.998   0.196   0.848
 4622TIP3   OH237318   3.395   0.139   0.916
 4622TIP3    H137319   3.469   0.138   0.852
 4622TIP3    H237320   3.316   0.128   0.859
 4623TIP3   OH237321   3.619   0.207   0.751
 4623TIP3    H137322   3.650   0.160   0.671
 4623TIP3    H237323   3.684   0.282   0.756
 4624TIP3   OH237324   2.158   0.125   0.710
 4624TIP3    H137325   2.105   0.131   0.629
 4624TIP3    H237326   2.178   0.028   0.708
 4625TIP3   OH237327   2.015   0.118   0.297
 4625TIP3    H137328   2.038   0.207   0.264
 4625TIP3    H237329   1.939   0.140   0.355
 4626TIP3   OH237330   2.630   0.096   0.661
 4626TIP3    H137331   2.716   0.126   0.625
 4626TIP3    H237332   2.643   0.117   0.755
 4627TIP3   OH237333   3.152   0.124   0.788
 4627TIP3    H137334   3.155   0.146   0.694
 4627TIP3    H237335   3.148   0.025   0.789
 4628TIP3   OH237336   3.329   0.166   0.441
 4628TIP3    H137337   3.245   0.195   0.399
 4628TIP3    H237338   3.315   0.069   0.435
 4629TIP3   OH237339   2.045   1.671   0.361
 4629TIP3    H137340   1.951   1.667   0.335
 4629TIP3    H237341   2.060   1.764   0.335
 4630TIP3   OH237342   2.222   0.197   0.117
 4630TIP3    H137343   2.287   0.211   0.046
 4630TIP3    H237344   2.246   0.272   0.175
 4631TIP3   OH237345   2.724   0.312   0.370
 4631TIP3    H137346   2.779   0.248   0.419
 4631TIP3    H237347   2.741   0.393   0.423
 4632TIP3   OH237348   2.931   1.874   0.185
 4632TIP3    H137349   2.996   1.909   0.122
 4632TIP3    H237350   2.931   1.779   0.161
 4633TIP3   OH237351   3.582   1.714   0.519
 4633TIP3    H137352   3.577   1.635   0.461
 4633TIP3    H237353   3.606   1.787   0.458
 4634TIP3   OH237354   2.164   0.219   1.610
 4634TIP3    H137355   2.108   0.143   1.583
 4634TIP3    H237356   2.225   0.165   1.666
 4635TIP3   OH237357   2.338   0.122   1.804
 4635TIP3    H137358   2.428   0.145   1.830
 4635TIP3    H237359   2.352   0.031   1.770
 4636TIP3   OH237360   2.226   1.774   0.079
 4636TIP3    H137361   2.154   1.801   0.138
 4636TIP3    H237362   2.256   1.691   0.118
 4637TIP3   OH237363   3.178   0.055   1.820
 4637TIP3    H137364   3.151  -0.035   1.846
 4637TIP3    H237365   3.232   0.035   1.742
 4638TIP3   OH237366   3.523   1.670   1.676
 4638TIP3    H137367   3.457   1.639   1.609
 4638TIP3    H237368   3.469   1.739   1.719
 4639TIP3   OH237369   4.979   1.014   0.677
 4639TIP3    H137370   4.970   1.109   0.699
 4639TIP3    H237371   4.900   1.000   0.623
 4640TIP3   OH237372   4.867   0.912   1.025
 4640TIP3    H137373   4.867   0.872   1.116
 4640TIP3    H237374   4.799   0.857   0.982
 4641TIP3   OH237375   4.053   0.928   1.217
 4641TIP3    H137376   4.060   0.833   1.240
 4641TIP3    H237377   4.147   0.953   1.212
 4642TIP3   OH237378   5.169   1.194   0.872
 4642TIP3    H137379   5.140   1.129   0.937
 4642TIP3    H237380   5.201   1.265   0.931
 4643TIP3   OH237381   4.156   1.363   1.021
 4643TIP3    H137382   4.127   1.275   0.988
 4643TIP3    H237383   4.251   1.352   1.003
 4644TIP3   OH237384   3.841   0.650   0.569
 4644TIP3    H137385   3.830   0.739   0.603
 4644TIP3    H237386   3.753   0.638   0.527
 4645TIP3   OH237387   3.859   0.930   0.785
 4645TIP3    H137388   3.891   0.842   0.814
 4645TIP3    H237389   3.933   0.963   0.732
 4646TIP3   OH237390   4.941   1.749   0.855
 4646TIP3    H137391   5.003   1.689   0.806
 4646TIP3    H237392   4.917   1.690   0.928
 4647TIP3   OH237393   4.655   1.176   1.106
 4647TIP3    H137394   4.682   1.152   1.016
 4647TIP3    H237395   4.743   1.196   1.146
 4648TIP3   OH237396   5.527   0.330   1.144
 4648TIP3    H137397   5.546   0.403   1.208
 4648TIP3    H237398   5.590   0.349   1.073
 4649TIP3   OH237399   5.045   0.635   1.138
 4649TIP3    H137400   5.052   0.542   1.166
 4649TIP3    H237401   5.010   0.621   1.047
 4650TIP3   OH237402   4.315   0.417   0.811
 4650TIP3    H137403   4.349   0.490   0.754
 4650TIP3    H237404   4.281   0.355   0.744
 4651TIP3   OH237405   5.109   0.428   0.673
 4651TIP3    H137406   5.144   0.418   0.764
 4651TIP3    H237407   5.155   0.509   0.645
 4652TIP3   OH237408   3.957   0.689   0.884
 4652TIP3    H137409   4.033   0.660   0.937
 4652TIP3    H237410   3.976   0.639   0.802
 4653TIP3   OH237411   4.439   0.822   0.839
 4653TIP3    H137412   4.532   0.795   0.854
 4653TIP3    H237413   4.418   0.758   0.768
 4654TIP3   OH237414   5.587   0.500   1.356
 4654TIP3    H137415   5.511   0.562   1.349
 4654TIP3    H237416   5.573   0.452   1.440
 4655TIP3   OH237417   4.207   0.322   1.226
 4655TIP3    H137418   4.174   0.376   1.152
 4655TIP3    H237419   4.127   0.315   1.284
 4656TIP3   OH237420   4.898   1.262   0.588
 4656TIP3    H137421   4.871   1.255   0.494
 4656TIP3    H237422   4.876   1.356   0.605
 4657TIP3   OH237423   4.428   1.076   1.211
 4657TIP3    H137424   4.372   1.149   1.248
 4657TIP3    H237425   4.502   1.125   1.169
 4658TIP3   OH237426   5.263   0.432   0.899
 4658TIP3    H137427   5.274   0.341   0.933
 4658TIP3    H237428   5.307   0.479   0.974
 4659TIP3   OH237429   4.178   0.530   1.031
 4659TIP3    H137430   4.242   0.594   1.070
 4659TIP3    H237431   4.229   0.496   0.954
 4660TIP3   OH237432   4.299   1.295   1.310
 4660TIP3    H137433   4.295   1.381   1.267
 4660TIP3    H237434   4.208   1.290   1.347
 4661TIP3   OH237435   3.888   1.228   0.397
 4661TIP3    H137436   3.890   1.275   0.311
 4661TIP3    H237437   3.894   1.302   0.459
 4662TIP3   OH237438   5.261   1.400   1.065
 4662TIP3    H137439   5.167   1.418   1.088
 4662TIP3    H237440   5.287   1.488   1.033
 4663TIP3   OH237441   5.256   0.244   1.196
 4663TIP3    H137442   5.256   0.217   1.102
 4663TIP3    H237443   5.348   0.222   1.220
 4664TIP3   OH237444   4.595   0.101   0.956
 4664TIP3    H137445   4.553   0.013   0.952
 4664TIP3    H237446   4.521   0.156   0.991
 4665TIP3   OH237447   5.102   1.579   0.723
 4665TIP3    H137448   5.129   1.497   0.677
 4665TIP3    H237449   5.179   1.639   0.704
 4666TIP3   OH237450   5.208   1.359   0.587
 4666TIP3    H137451   5.191   1.289   0.520
 4666TIP3    H237452   5.189   1.308   0.668
 4667TIP3   OH237453   5.374   1.263   1.480
 4667TIP3    H137454   5.389   1.186   1.421
 4667TIP3    H237455   5.390   1.335   1.416
 4668TIP3   OH237456   4.818   0.927   0.429
 4668TIP3    H137457   4.751   0.997   0.412
 4668TIP3    H237458   4.898   0.962   0.387
 4669TIP3   OH237459   4.810   0.846   0.148
 4669TIP3    H137460   4.879   0.876   0.212
 4669TIP3    H237461   4.842   0.757   0.130
 4670TIP3   OH237462   5.575   0.890   1.259
 4670TIP3    H137463   5.518   0.969   1.266
 4670TIP3    H237464   5.632   0.919   1.184
 4671TIP3   OH237465   5.197   0.929   0.528
 4671TIP3    H137466   5.126   0.959   0.590
 4671TIP3    H237467   5.259   0.886   0.592
 4672TIP3   OH237468   5.164   0.753   1.453
 4672TIP3    H137469   5.169   0.843   1.489
 4672TIP3    H237470   5.096   0.765   1.385
 4673TIP3   OH237471   4.308   1.004   0.686
 4673TIP3    H137472   4.296   0.962   0.597
 4673TIP3    H237473   4.366   0.941   0.734
 4674TIP3   OH237474   4.454   1.340   0.973
 4674TIP3    H137475   4.468   1.315   0.881
 4674TIP3    H237476   4.528   1.297   1.019
 4675TIP3   OH237477   4.319   0.881   1.083
 4675TIP3    H137478   4.355   0.878   0.991
 4675TIP3    H237479   4.374   0.952   1.124
 4676TIP3   OH237480   5.017   1.453   1.147
 4676TIP3    H137481   5.002   1.521   1.216
 4676TIP3    H237482   4.989   1.372   1.194
 4677TIP3   OH237483   4.434   1.289   1.547
 4677TIP3    H137484   4.382   1.365   1.581
 4677TIP3    H237485   4.395   1.280   1.457
 4678TIP3   OH237486   5.051   0.886   0.304
 4678TIP3    H137487   5.107   0.902   0.384
 4678TIP3    H237488   5.098   0.940   0.235
 4679TIP3   OH237489   4.175   0.934   1.477
 4679TIP3    H137490   4.171   1.005   1.543
 4679TIP3    H237491   4.082   0.905   1.479
 4680TIP3   OH237492   4.821   1.524   0.631
 4680TIP3    H137493   4.872   1.583   0.687
 4680TIP3    H237494   4.759   1.585   0.589
 4681TIP3   OH237495   4.283   1.508   1.604
 4681TIP3    H137496   4.264   1.537   1.512
 4681TIP3    H237497   4.194   1.485   1.639
 4682TIP3   OH237498   5.453   0.078   0.327
 4682TIP3    H137499   5.358   0.100   0.319
 4682TIP3    H237500   5.493   0.154   0.280
 4683TIP3   OH237501   4.216   0.905   0.445
 4683TIP3    H137502   4.182   0.985   0.398
 4683TIP3    H237503   4.148   0.839   0.428
 4684TIP3   OH237504   5.520   1.432   0.110
 4684TIP3    H137505   5.556   1.515   0.076
 4684TIP3    H237506   5.604   1.388   0.136
 4685TIP3   OH237507   3.854   1.169   1.358
 4685TIP3    H137508   3.812   1.147   1.274
 4685TIP3    H237509   3.891   1.081   1.380
 4686TIP3   OH237510   3.796   1.451   1.076
 4686TIP3    H137511   3.852   1.374   1.098
 4686TIP3    H237512   3.864   1.520   1.066
 4687TIP3   OH237513   4.715   1.444   1.503
 4687TIP3    H137514   4.726   1.536   1.538
 4687TIP3    H237515   4.665   1.402   1.574
 4688TIP3   OH237516   4.769   1.830   0.448
 4688TIP3    H137517   4.772   1.863   0.356
 4688TIP3    H237518   4.782   1.914   0.498
 4689TIP3   OH237519   4.133   1.686   0.655
 4689TIP3    H137520   4.159   1.657   0.745
 4689TIP3    H237521   4.048   1.640   0.642
 4690TIP3   OH237522   5.087   1.778   0.157
 4690TIP3    H137523   5.135   1.704   0.116
 4690TIP3    H237524   5.096   1.759   0.252
 4691TIP3   OH237525   5.049   1.748   0.445
 4691TIP3    H137526   4.954   1.766   0.458
 4691TIP3    H237527   5.061   1.665   0.494
 4692TIP3   OH237528   5.329   0.647   1.643
 4692TIP3    H137529   5.285   0.699   1.573
 4692TIP3    H237530   5.361   0.570   1.593
 4693TIP3   OH237531   4.061   1.308   1.435
 4693TIP3    H137532   4.075   1.272   1.525
 4693TIP3    H237533   3.978   1.261   1.412
 4694TIP3   OH237534   4.372   0.212   1.052
 4694TIP3    H137535   4.301   0.234   0.989
 4694TIP3    H237536   4.331   0.249   1.134
 4695TIP3   OH237537   4.761   0.170   1.394
 4695TIP3    H137538   4.797   0.084   1.423
 4695TIP3    H237539   4.689   0.186   1.458
 4696TIP3   OH237540   5.102   0.486   1.452
 4696TIP3    H137541   5.046   0.474   1.532
 4696TIP3    H237542   5.137   0.577   1.462
 4697TIP3   OH237543   5.181   0.999   0.106
 4697TIP3    H137544   5.170   1.028   0.015
 4697TIP3    H237545   5.275   1.023   0.117
 4698TIP3   OH237546   4.807   0.356   0.160
 4698TIP3    H137547   4.746   0.352   0.237
 4698TIP3    H237548   4.755   0.304   0.098
 4699TIP3   OH237549   4.363   0.643   1.185
 4699TIP3    H137550   4.282   0.648   1.240
 4699TIP3    H237551   4.363   0.735   1.150
 4700TIP3   OH237552   4.355   0.623   0.645
 4700TIP3    H137553   4.258   0.611   0.648
 4700TIP3    H237554   4.378   0.599   0.553
 4701TIP3   OH237555   4.897   0.685   0.523
 4701TIP3    H137556   4.870   0.773   0.487
 4701TIP3    H237557   4.965   0.660   0.458
 4702TIP3   OH237558   4.767   0.734   1.669
 4702TIP3    H137559   4.732   0.645   1.693
 4702TIP3    H237560   4.842   0.740   1.730
 4703TIP3   OH237561   4.978   0.663   0.869
 4703TIP3    H137562   4.965   0.737   0.806
 4703TIP3    H237563   4.984   0.586   0.811
 4704TIP3   OH237564   4.090   0.665   1.301
 4704TIP3    H137565   4.132   0.682   1.387
 4704TIP3    H237566   4.064   0.571   1.310
 4705TIP3   OH237567   4.459   0.397   0.064
 4705TIP3    H137568   4.404   0.367   0.139
 4705TIP3    H237569   4.450   0.493   0.061
 4706TIP3   OH237570   3.813   0.384   0.745
 4706TIP3    H137571   3.867   0.387   0.828
 4706TIP3    H237572   3.873   0.346   0.681
 4707TIP3   OH237573   3.876   0.440   0.276
 4707TIP3    H137574   3.935   0.476   0.207
 4707TIP3    H237575   3.836   0.522   0.307
 4708TIP3   OH237576   4.894   0.815   1.271
 4708TIP3    H137577   4.961   0.753   1.232
 4708TIP3    H237578   4.840   0.752   1.324
 4709TIP3   OH237579   4.629   0.392   0.781
 4709TIP3    H137580   4.540   0.355   0.779
 4709TIP3    H237581   4.666   0.353   0.862
 4710TIP3   OH237582   4.086   0.564   0.659
 4710TIP3    H137583   4.004   0.583   0.607
 4710TIP3    H237584   4.114   0.477   0.623
 4711TIP3   OH237585   4.445   0.574   0.385
 4711TIP3    H137586   4.534   0.593   0.421
 4711TIP3    H237587   4.425   0.645   0.321
 4712TIP3   OH237588   4.988   0.341   1.063
 4712TIP3    H137589   4.996   0.317   1.157
 4712TIP3    H237590   4.901   0.308   1.034
 4713TIP3   OH237591   4.334   0.696   0.148
 4713TIP3    H137592   4.274   0.676   0.074
 4713TIP3    H237593   4.412   0.732   0.101
 4714TIP3   OH237594   4.095   1.148   1.689
 4714TIP3    H137595   4.156   1.147   1.766
 4714TIP3    H237596   4.015   1.109   1.730
 4715TIP3   OH237597   4.714   0.693   0.945
 4715TIP3    H137598   4.795   0.653   0.908
 4715TIP3    H237599   4.686   0.624   1.006
 4716TIP3   OH237600   4.185   0.316   0.591
 4716TIP3    H137601   4.150   0.234   0.634
 4716TIP3    H237602   4.235   0.280   0.517
 4717TIP3   OH237603   4.595   0.501   1.175
 4717TIP3    H137604   4.522   0.566   1.184
 4717TIP3    H237605   4.662   0.539   1.235
 4718TIP3   OH237606   4.647   1.135   0.406
 4718TIP3    H137607   4.576   1.079   0.367
 4718TIP3    H237608   4.603   1.166   0.490
 4719TIP3   OH237609   5.390   1.110   1.265
 4719TIP3    H137610   5.436   1.158   1.192
 4719TIP3    H237611   5.308   1.084   1.217
 4720TIP3   OH237612   5.069   0.380   0.215
 4720TIP3    H137613   4.975   0.386   0.188
 4720TIP3    H237614   5.089   0.474   0.236
 4721TIP3   OH237615   4.785   1.164   1.532
 4721TIP3    H137616   4.710   1.160   1.593
 4721TIP3    H237617   4.803   1.260   1.528
 4722TIP3   OH237618   5.103   0.616   0.350
 4722TIP3    H137619   5.159   0.620   0.430
 4722TIP3    H237620   5.131   0.697   0.303
 4723TIP3   OH237621   4.150   1.106   0.903
 4723TIP3    H137622   4.186   1.085   0.814
 4723TIP3    H237623   4.188   1.035   0.956
 4724TIP3   OH237624   4.847   1.259   0.283
 4724TIP3    H137625   4.805   1.345   0.306
 4724TIP3    H237626   4.778   1.198   0.318
 4725TIP3   OH237627   3.849   0.912   1.469
 4725TIP3    H137628   3.840   0.857   1.550
 4725TIP3    H237629   3.795   0.861   1.406
 4726TIP3   OH237630   4.538   0.873   1.642
 4726TIP3    H137631   4.481   0.833   1.575
 4726TIP3    H237632   4.619   0.817   1.637
 4727TIP3   OH237633   5.030   1.379   1.522
 4727TIP3    H137634   4.970   1.431   1.467
 4727TIP3    H237635   5.063   1.444   1.586
 4728TIP3   OH237636   5.586   0.618   0.328
 4728TIP3    H137637   5.537   0.609   0.245
 4728TIP3    H237638   5.607   0.714   0.324
 4729TIP3   OH237639   5.602   1.187   1.612
 4729TIP3    H137640   5.527   1.246   1.590
 4729TIP3    H237641   5.656   1.193   1.530
 4730TIP3   OH237642   5.389   1.507   0.347
 4730TIP3    H137643   5.370   1.421   0.385
 4730TIP3    H237644   5.426   1.486   0.260
 4731TIP3   OH237645   5.133   0.994   1.074
 4731TIP3    H137646   5.040   0.973   1.050
 4731TIP3    H237647   5.181   0.928   1.022
 4732TIP3   OH237648   4.378   1.431   0.669
 4732TIP3    H137649   4.394   1.526   0.646
 4732TIP3    H237650   4.286   1.423   0.644
 4733TIP3   OH237651   3.966   0.922   0.149
 4733TIP3    H137652   4.016   0.985   0.206
 4733TIP3    H237653   3.873   0.939   0.172
 4734TIP3   OH237654   4.518   1.200   0.631
 4734TIP3    H137655   4.469   1.286   0.637
 4734TIP3    H237656   4.469   1.141   0.689
 4735TIP3   OH237657   4.576   1.602   1.311
 4735TIP3    H137658   4.650   1.661   1.287
 4735TIP3    H237659   4.621   1.539   1.371
 4736TIP3   OH237660   4.404   1.688   0.582
 4736TIP3    H137661   4.307   1.693   0.596
 4736TIP3    H237662   4.434   1.770   0.625
 4737TIP3   OH237663   4.888   1.202   1.239
 4737TIP3    H137664   4.860   1.162   1.324
 4737TIP3    H237665   4.941   1.131   1.202
 4738TIP3   OH237666   5.159   1.328   0.182
 4738TIP3    H137667   5.181   1.276   0.262
 4738TIP3    H237668   5.067   1.298   0.170
 4739TIP3   OH237669   5.600   1.742   0.168
 4739TIP3    H137670   5.656   1.809   0.126
 4739TIP3    H237671   5.533   1.798   0.213
 4740TIP3   OH237672   4.006   0.373   1.390
 4740TIP3    H137673   3.930   0.428   1.416
 4740TIP3    H237674   4.011   0.313   1.467
 4741TIP3   OH237675   5.245   1.164   0.397
 4741TIP3    H137676   5.230   1.078   0.442
 4741TIP3    H237677   5.342   1.174   0.406
 4742TIP3   OH237678   3.978   1.542   1.276
 4742TIP3    H137679   4.033   1.460   1.271
 4742TIP3    H237680   4.010   1.577   1.360
 4743TIP3   OH237681   4.453   1.366   0.246
 4743TIP3    H137682   4.522   1.323   0.298
 4743TIP3    H237683   4.467   1.461   0.269
 4744TIP3   OH237684   4.106   1.102   0.292
 4744TIP3    H137685   4.038   1.146   0.347
 4744TIP3    H237686   4.141   1.177   0.238
 4745TIP3   OH237687   4.894   0.390   1.322
 4745TIP3    H137688   4.977   0.399   1.374
 4745TIP3    H237689   4.856   0.307   1.358
 4746TIP3   OH237690   4.979   0.315   0.469
 4746TIP3    H137691   5.003   0.368   0.390
 4746TIP3    H237692   5.029   0.363   0.539
 4747TIP3   OH237693   4.750   1.500   0.344
 4747TIP3    H137694   4.691   1.576   0.354
 4747TIP3    H237695   4.813   1.533   0.277
 4748TIP3   OH237696   4.672   0.526   0.539
 4748TIP3    H137697   4.749   0.586   0.532
 4748TIP3    H237698   4.676   0.490   0.630
 4749TIP3   OH237699   4.775   0.626   1.413
 4749TIP3    H137700   4.788   0.651   1.507
 4749TIP3    H237701   4.826   0.543   1.401
 4750TIP3   OH237702   4.772   0.194   0.588
 4750TIP3    H137703   4.752   0.266   0.651
 4750TIP3    H237704   4.851   0.232   0.542
 4751TIP3   OH237705   4.475   1.629   0.317
 4751TIP3    H137706   4.503   1.715   0.278
 4751TIP3    H237707   4.438   1.662   0.402
 4752TIP3   OH237708   4.324   0.333   0.305
 4752TIP3    H137709   4.330   0.428   0.330
 4752TIP3    H237710   4.412   0.306   0.338
 4753TIP3   OH237711   5.345   0.383   1.490
 4753TIP3    H137712   5.254   0.406   1.461
 4753TIP3    H237713   5.370   0.322   1.417
 4754TIP3   OH237714   5.239   0.749   0.918
 4754TIP3    H137715   5.159   0.694   0.933
 4754TIP3    H237716   5.309   0.691   0.957
 4755TIP3   OH237717   4.170   1.350   0.161
 4755TIP3    H137718   4.246   1.390   0.207
 4755TIP3    H237719   4.218   1.300   0.093
 4756TIP3   OH237720   3.983   0.655   0.090
 4756TIP3    H137721   3.999   0.748   0.118
 4756TIP3    H237722   3.945   0.664   0.001
 4757TIP3   OH237723   5.323   1.694   1.075
 4757TIP3    H137724   5.326   1.767   1.009
 4757TIP3    H237725   5.419   1.679   1.083
 4758TIP3   OH237726   4.088   0.153   0.957
 4758TIP3    H137727   4.069   0.122   0.866
 4758TIP3    H237728   4.065   0.068   1.001
 4759TIP3   OH237729   3.938   1.506   0.555
 4759TIP3    H137730   3.863   1.554   0.591
 4759TIP3    H237731   3.957   1.558   0.473
 4760TIP3   OH237732   3.881   1.716   1.664
 4760TIP3    H137733   3.938   1.707   1.742
 4760TIP3    H237734   3.831   1.631   1.663
 4761TIP3   OH237735   4.344   1.683   1.794
 4761TIP3    H137736   4.405   1.617   1.830
 4761TIP3    H237737   4.320   1.633   1.712
 4762TIP3   OH237738   4.850   1.618   0.114
 4762TIP3    H137739   4.789   1.563   0.061
 4762TIP3    H237740   4.915   1.643   0.045
 4763TIP3   OH237741   5.265   1.578   0.031
 4763TIP3    H137742   5.234   1.502   0.084
 4763TIP3    H237743   5.360   1.573   0.050
 4764TIP3   OH237744   3.874   1.147   1.844
 4764TIP3    H137745   3.842   1.058   1.862
 4764TIP3    H237746   3.807   1.174   1.777
 4765TIP3   OH237747   4.329   1.139   0.054
 4765TIP3    H137748   4.389   1.133   0.130
 4765TIP3    H237749   4.384   1.102  -0.019
 4766TIP3   OH237750   4.558   1.128   1.719
 4766TIP3    H137751   4.514   1.183   1.650
 4766TIP3    H237752   4.559   1.037   1.681
 4767TIP3   OH237753   5.112   1.116   1.490
 4767TIP3    H137754   5.197   1.166   1.500
 4767TIP3    H237755   5.052   1.193   1.498
 4768TIP3   OH237756   3.967   0.854   1.751
 4768TIP3    H137757   4.060   0.852   1.776
 4768TIP3    H237758   3.920   0.835   1.833
 4769TIP3   OH237759   4.460   0.980   0.262
 4769TIP3    H137760   4.384   0.930   0.298
 4769TIP3    H237761   4.494   0.921   0.194
 4770TIP3   OH237762   4.342   0.734   1.438
 4770TIP3    H137763   4.282   0.807   1.464
 4770TIP3    H237764   4.412   0.785   1.391
 4771TIP3   OH237765   4.560   0.800   0.040
 4771TIP3    H137766   4.596   0.817  -0.049
 4771TIP3    H237767   4.643   0.811   0.092
 4772TIP3   OH237768   4.900   1.042   1.817
 4772TIP3    H137769   4.987   1.015   1.784
 4772TIP3    H237770   4.840   1.027   1.742
 4773TIP3   OH237771   5.448   1.049   8.491
 4773TIP3    H137772   5.419   1.047   8.398
 4773TIP3    H237773   5.470   1.142   8.504
 4774TIP3   OH237774   4.439   0.526   1.571
 4774TIP3    H137775   4.447   0.459   1.501
 4774TIP3    H237776   4.422   0.607   1.518
 4775TIP3   OH237777   4.446   0.355   1.352
 4775TIP3    H137778   4.503   0.394   1.282
 4775TIP3    H237779   4.355   0.366   1.317
 4776TIP3   OH237780   4.551   0.887   1.354
 4776TIP3    H137781   4.647   0.901   1.344
 4776TIP3    H237782   4.512   0.969   1.315
 4777TIP3   OH237783   5.017   0.646   1.863
 4777TIP3    H137784   5.044   0.564   1.819
 4777TIP3    H237785   5.100   0.697   1.863
 4778TIP3   OH237786   5.193   0.955   1.691
 4778TIP3    H137787   5.163   1.013   1.618
 4778TIP3    H237788   5.288   0.945   1.668
 4779TIP3   OH237789   4.245   0.585   1.772
 4779TIP3    H137790   4.170   0.524   1.766
 4779TIP3    H237791   4.304   0.558   1.700
 4780TIP3   OH237792   4.499   0.094   1.339
 4780TIP3    H137793   4.496   0.192   1.356
 4780TIP3    H237794   4.404   0.076   1.325
 4781TIP3   OH237795   4.646   0.502   1.754
 4781TIP3    H137796   4.596   0.458   1.826
 4781TIP3    H237797   4.577   0.496   1.684
 4782TIP3   OH237798   4.931   0.416   1.661
 4782TIP3    H137799   4.838   0.402   1.685
 4782TIP3    H237800   4.978   0.362   1.729
 4783TIP3   OH237801   5.061   0.313   1.869
 4783TIP3    H137802   5.065   0.215   1.858
 4783TIP3    H237803   5.019   0.322   1.957
 4784TIP3   OH237804   4.053   0.394   1.804
 4784TIP3    H137805   4.044   0.335   1.727
 4784TIP3    H237806   4.036   0.333   1.877
 4785TIP3   OH237807   4.558   0.104   1.612
 4785TIP3    H137808   4.557   0.027   1.671
 4785TIP3    H237809   4.529   0.065   1.527
 4786TIP3   OH237810   4.535   1.865   0.207
 4786TIP3    H137811   4.623   1.904   0.220
 4786TIP3    H237812   4.535   1.856   0.111
 4787TIP3   OH237813   3.880   1.315   0.134
 4787TIP3    H137814   3.977   1.331   0.131
 4787TIP3    H237815   3.867   1.278   0.045
 4788TIP3   OH237816   3.800   1.829   0.630
 4788TIP3    H137817   3.714   1.784   0.617
 4788TIP3    H237818   3.839   1.770   0.698
 4789TIP3   OH237819   3.857   1.652   0.821
 4789TIP3    H137820   3.818   1.568   0.850
 4789TIP3    H237821   3.913   1.681   0.896
 4790TIP3   OH237822   5.596   1.723   1.084
 4790TIP3    H137823   5.609   1.731   1.181
 4790TIP3    H237824   5.629   1.809   1.053
 4791TIP3   OH237825   5.573   1.689   1.362
 4791TIP3    H137826   5.527   1.608   1.331
 4791TIP3    H237827   5.586   1.667   1.456
 4792TIP3   OH237828   5.443   1.289   1.886
 4792TIP3    H137829   5.380   1.259   1.954
 4792TIP3    H237830   5.522   1.313   1.937
 4793TIP3   OH237831   5.522   1.120   0.393
 4793TIP3    H137832   5.608   1.165   0.406
 4793TIP3    H237833   5.522   1.063   0.474
 4794TIP3   OH237834   5.551   0.959   0.605
 4794TIP3    H137835   5.483   0.900   0.647
 4794TIP3    H237836   5.620   0.959   0.674
 4795TIP3   OH237837   5.529   1.185   1.052
 4795TIP3    H137838   5.613   1.136   1.046
 4795TIP3    H237839   5.558   1.277   1.034
 4796TIP3   OH237840   5.410   1.483   1.310
 4796TIP3    H137841   5.342   1.515   1.371
 4796TIP3    H237842   5.358   1.457   1.231
 4797TIP3   OH237843   5.563   0.890   0.239
 4797TIP3    H137844   5.506   0.900   0.161
 4797TIP3    H237845   5.536   0.966   0.295
 4798TIP3   OH237846   5.338   0.629   0.111
 4798TIP3    H137847   5.422   0.653   0.069
 4798TIP3    H237848   5.326   0.539   0.073
 4799TIP3   OH237849   5.365   0.794   0.687
 4799TIP3    H137850   5.323   0.715   0.648
 4799TIP3    H237851   5.341   0.781   0.782
 4800TIP3   OH237852   3.853   0.997   1.059
 4800TIP3    H137853   3.868   0.970   0.966
 4800TIP3    H237854   3.943   0.990   1.099
 4801TIP3   OH237855   5.455   0.962   1.604
 4801TIP3    H137856   5.514   0.890   1.636
 4801TIP3    H237857   5.512   1.041   1.605
 4802TIP3   OH237858   5.579   0.743   1.674
 4802TIP3    H137859   5.485   0.715   1.686
 4802TIP3    H237860   5.627   0.669   1.717
 4803TIP3   OH237861   5.339   0.388  -0.002
 4803TIP3    H137862   5.358   0.305   0.046
 4803TIP3    H237863   5.245   0.373  -0.020
 4804TIP3   OH237864   5.292   0.584   0.530
 4804TIP3    H137865   5.324   0.493   0.553
 4804TIP3    H237866   5.342   0.597   0.448
 4805TIP3   OH237867   5.404   0.592   1.057
 4805TIP3    H137868   5.498   0.621   1.055
 4805TIP3    H237869   5.387   0.596   1.154
 4806TIP3   OH237870   5.392   0.687   1.308
 4806TIP3    H137871   5.300   0.718   1.302
 4806TIP3    H237872   5.443   0.770   1.302
 4807TIP3   OH237873   3.836   0.508   1.664
 4807TIP3    H137874   3.920   0.484   1.707
 4807TIP3    H237875   3.779   0.430   1.681
 4808TIP3   OH237876   5.622   0.109   1.805
 4808TIP3    H137877   5.681   0.130   1.728
 4808TIP3    H237878   5.546   0.166   1.780
 4809TIP3   OH237879   5.375   0.330   0.559
 4809TIP3    H137880   5.395   0.306   0.653
 4809TIP3    H237881   5.378   0.244   0.516
 4810TIP3   OH237882   3.937   0.383   0.995
 4810TIP3    H137883   3.995   0.304   0.985
 4810TIP3    H237884   4.002   0.448   1.027
 4811TIP3   OH237885   3.783   0.652   1.090
 4811TIP3    H137886   3.837   0.648   1.009
 4811TIP3    H237887   3.832   0.713   1.146
 4812TIP3   OH237888   5.426   0.270   1.717
 4812TIP3    H137889   5.355   0.312   1.664
 4812TIP3    H237890   5.500   0.285   1.654
 4813TIP3   OH237891   5.572   0.291   0.166
 4813TIP3    H137892   5.566   0.249   0.078
 4813TIP3    H237893   5.556   0.385   0.141
 4814TIP3   OH237894   3.749   0.237   0.449
 4814TIP3    H137895   3.677   0.293   0.484
 4814TIP3    H237896   3.805   0.302   0.404
 4815TIP3   OH237897   5.287   1.755   0.690
 4815TIP3    H137898   5.360   1.739   0.627
 4815TIP3    H237899   5.325   1.818   0.754
 4816TIP3   OH237900   3.817   0.157   1.302
 4816TIP3    H137901   3.754   0.167   1.375
 4816TIP3    H237902   3.779   0.222   1.238
 4817TIP3   OH237903   4.053   1.450   1.751
 4817TIP3    H137904   3.992   1.507   1.703
 4817TIP3    H237905   4.005   1.367   1.757
 4818TIP3   OH237906   4.308   1.597   1.353
 4818TIP3    H137907   4.321   1.690   1.322
 4818TIP3    H237908   4.401   1.568   1.351
 4819TIP3   OH237909   4.736   1.694   1.617
 4819TIP3    H137910   4.749   1.666   1.709
 4819TIP3    H237911   4.822   1.738   1.597
 4820TIP3   OH237912   4.976   1.816   1.589
 4820TIP3    H137913   5.012   1.838   1.501
 4820TIP3    H237914   5.001   1.891   1.645
 4821TIP3   OH237915   5.389   0.107   1.410
 4821TIP3    H137916   5.309   0.115   1.463
 4821TIP3    H237917   5.451   0.067   1.474
 4822TIP3   OH237918   4.053   1.900   1.337
 4822TIP3    H137919   3.979   1.959   1.312
 4822TIP3    H237920   4.052   1.907   1.434
 4823TIP3   OH237921   4.303   1.842   1.254
 4823TIP3    H137922   4.209   1.855   1.283
 4823TIP3    H237923   4.303   1.881   1.165
 4824TIP3   OH237924   4.766   1.817   1.161
 4824TIP3    H137925   4.688   1.872   1.143
 4824TIP3    H237926   4.800   1.859   1.242
 4825TIP3   OH237927   5.000   1.674   1.300
 4825TIP3    H137928   4.950   1.730   1.239
 4825TIP3    H237929   5.088   1.715   1.295
 4826TIP3   OH237930   5.250   1.839   1.293
 4826TIP3    H137931   5.264   1.927   1.254
 4826TIP3    H237932   5.279   1.780   1.220
 4827TIP3   OH237933   4.011   1.734   1.033
 4827TIP3    H137934   4.009   1.693   1.122
 4827TIP3    H237935   4.100   1.707   1.002
 4828TIP3   OH237936   4.234   1.641   0.912
 4828TIP3    H137937   4.206   1.552   0.940
 4828TIP3    H237938   4.321   1.645   0.958
 4829TIP3   OH237939   4.461   1.622   1.049
 4829TIP3    H137940   4.482   1.530   1.025
 4829TIP3    H237941   4.494   1.626   1.141
 4830TIP3   OH237942   4.810   0.237   0.904
 4830TIP3    H137943   4.749   0.161   0.913
 4830TIP3    H237944   4.887   0.199   0.858
 4831TIP3   OH237945   5.304   0.153   0.946
 4831TIP3    H137946   5.373   0.163   0.878
 4831TIP3    H237947   5.240   0.095   0.904
 4832TIP3   OH237948   5.501   0.227   0.763
 4832TIP3    H137949   5.552   0.161   0.714
 4832TIP3    H237950   5.563   0.304   0.762
 4833TIP3   OH237951   4.058   0.103   0.688
 4833TIP3    H137952   4.010   0.115   0.605
 4833TIP3    H237953   4.045   0.005   0.699
 4834TIP3   OH237954   3.884   0.092   0.226
 4834TIP3    H137955   3.938   0.162   0.184
 4834TIP3    H237956   3.836   0.138   0.296
 4835TIP3   OH237957   4.532   0.120   0.694
 4835TIP3    H137958   4.600   0.154   0.632
 4835TIP3    H237959   4.587   0.111   0.774
 4836TIP3   OH237960   5.027   0.118   0.799
 4836TIP3    H137961   5.050   0.151   0.711
 4836TIP3    H237962   5.052   0.024   0.799
 4837TIP3   OH237963   5.194   0.128   0.401
 4837TIP3    H137964   5.133   0.188   0.352
 4837TIP3    H237965   5.172   0.155   0.491
 4838TIP3   OH237966   3.930   1.680   0.349
 4838TIP3    H137967   3.842   1.676   0.309
 4838TIP3    H237968   3.946   1.775   0.334
 4839TIP3   OH237969   4.103   0.223   0.103
 4839TIP3    H137970   4.170   0.209   0.035
 4839TIP3    H237971   4.157   0.261   0.174
 4840TIP3   OH237972   4.627   0.317   0.360
 4840TIP3    H137973   4.677   0.261   0.422
 4840TIP3    H237974   4.632   0.403   0.406
 4841TIP3   OH237975   4.812   1.874   0.183
 4841TIP3    H137976   4.902   1.892   0.151
 4841TIP3    H237977   4.812   1.777   0.167
 4842TIP3   OH237978   5.470   1.709   0.497
 4842TIP3    H137979   5.441   1.634   0.438
 4842TIP3    H237980   5.464   1.784   0.434
 4843TIP3   OH237981   4.021   0.204   1.625
 4843TIP3    H137982   3.978   0.123   1.591
 4843TIP3    H237983   4.090   0.160   1.681
 4844TIP3   OH237984   4.211   0.092   1.782
 4844TIP3    H137985   4.296   0.121   1.747
 4844TIP3    H237986   4.218  -0.005   1.772
 4845TIP3   OH237987   4.122   1.781   0.059
 4845TIP3    H137988   4.057   1.795   0.129
 4845TIP3    H237989   4.166   1.700   0.086
 4846TIP3   OH237990   5.040   0.047   1.845
 4846TIP3    H137991   4.989  -0.035   1.854
 4846TIP3    H237992   5.127   0.016   1.880
 4847TIP3   OH237993   6.877   1.016   0.688
 4847TIP3    H137994   6.873   1.111   0.710
 4847TIP3    H237995   6.794   1.006   0.638
 4848TIP3   OH237996   6.703   0.913   1.023
 4848TIP3    H137997   6.724   0.868   1.108
 4848TIP3    H237998   6.646   0.850   0.976
 4849TIP3   OH237999   5.959   0.939   1.188
 4849TIP3    H138000   5.957   0.862   1.249
 4849TIP3    H238001   6.053   0.965   1.194
 4850TIP3   OH238002   7.104   1.224   0.876
 4850TIP3    H138003   7.112   1.155   0.944
 4850TIP3    H238004   7.096   1.305   0.930
 4851TIP3   OH238005   6.066   1.349   1.013
 4851TIP3    H138006   6.025   1.266   0.983
 4851TIP3    H238007   6.158   1.332   0.985
 4852TIP3   OH238008   5.717   0.654   0.578
 4852TIP3    H138009   5.689   0.734   0.624
 4852TIP3    H238010   5.631   0.616   0.552
 4853TIP3   OH238011   5.752   0.946   0.802
 4853TIP3    H138012   5.785   0.857   0.828
 4853TIP3    H238013   5.831   0.986   0.762
 4854TIP3   OH238014   6.821   1.755   0.855
 4854TIP3    H138015   6.887   1.703   0.804
 4854TIP3    H238016   6.787   1.682   0.908
 4855TIP3   OH238017   6.545   1.189   1.095
 4855TIP3    H138018   6.577   1.132   1.023
 4855TIP3    H238019   6.630   1.209   1.139
 4856TIP3   OH238020   7.387   0.379   1.127
 4856TIP3    H138021   7.417   0.438   1.200
 4856TIP3    H238022   7.455   0.399   1.060
 4857TIP3   OH238023   6.917   0.611   1.129
 4857TIP3    H138024   6.941   0.517   1.142
 4857TIP3    H238025   6.893   0.608   1.035
 4858TIP3   OH238026   6.200   0.405   0.795
 4858TIP3    H138027   6.222   0.485   0.742
 4858TIP3    H238028   6.158   0.350   0.726
 4859TIP3   OH238029   6.998   0.429   0.654
 4859TIP3    H138030   7.022   0.414   0.748
 4859TIP3    H238031   7.055   0.503   0.631
 4860TIP3   OH238032   5.847   0.700   0.891
 4860TIP3    H138033   5.919   0.673   0.951
 4860TIP3    H238034   5.865   0.642   0.815
 4861TIP3   OH238035   6.336   0.827   0.845
 4861TIP3    H138036   6.425   0.791   0.864
 4861TIP3    H238037   6.305   0.758   0.782
 4862TIP3   OH238038   7.466   0.508   1.347
 4862TIP3    H138039   7.388   0.564   1.367
 4862TIP3    H238040   7.474   0.457   1.429
 4863TIP3   OH238041   6.119   0.330   1.223
 4863TIP3    H138042   6.073   0.386   1.157
 4863TIP3    H238043   6.049   0.319   1.291
 4864TIP3   OH238044   6.775   1.255   0.567
 4864TIP3    H138045   6.747   1.245   0.475
 4864TIP3    H238046   6.735   1.342   0.590
 4865TIP3   OH238047   6.320   1.082   1.201
 4865TIP3    H138048   6.263   1.158   1.227
 4865TIP3    H238049   6.397   1.130   1.163
 4866TIP3   OH238050   7.127   0.435   0.895
 4866TIP3    H138051   7.162   0.346   0.919
 4866TIP3    H238052   7.141   0.482   0.980
 4867TIP3   OH238053   6.067   0.513   1.014
 4867TIP3    H138054   6.135   0.573   1.053
 4867TIP3    H238055   6.110   0.485   0.930
 4868TIP3   OH238056   6.191   1.297   1.305
 4868TIP3    H138057   6.173   1.378   1.255
 4868TIP3    H238058   6.106   1.285   1.353
 4869TIP3   OH238059   5.774   1.220   0.404
 4869TIP3    H138060   5.766   1.264   0.316
 4869TIP3    H238061   5.784   1.295   0.465
 4870TIP3   OH238062   7.135   1.424   1.057
 4870TIP3    H138063   7.042   1.431   1.087
 4870TIP3    H238064   7.156   1.518   1.050
 4871TIP3   OH238065   7.196   0.222   1.242
 4871TIP3    H138066   7.123   0.204   1.180
 4871TIP3    H238067   7.249   0.283   1.186
 4872TIP3   OH238068   6.466   0.103   0.913
 4872TIP3    H138069   6.473   0.016   0.956
 4872TIP3    H238070   6.408   0.152   0.976
 4873TIP3   OH238071   6.968   1.571   0.729
 4873TIP3    H138072   6.995   1.490   0.679
 4873TIP3    H238073   7.049   1.627   0.716
 4874TIP3   OH238074   7.081   1.371   0.584
 4874TIP3    H138075   7.064   1.299   0.519
 4874TIP3    H238076   7.117   1.323   0.660
 4875TIP3   OH238077   7.230   1.222   1.463
 4875TIP3    H138078   7.232   1.146   1.401
 4875TIP3    H238079   7.255   1.294   1.401
 4876TIP3   OH238080   6.710   0.922   0.423
 4876TIP3    H138081   6.632   0.982   0.419
 4876TIP3    H238082   6.780   0.981   0.394
 4877TIP3   OH238083   6.690   0.832   0.152
 4877TIP3    H138084   6.751   0.847   0.228
 4877TIP3    H238085   6.732   0.758   0.107
 4878TIP3   OH238086   7.414   0.861   1.237
 4878TIP3    H138087   7.351   0.938   1.237
 4878TIP3    H238088   7.480   0.897   1.172
 4879TIP3   OH238089   7.074   0.934   0.519
 4879TIP3    H138090   7.005   0.963   0.583
 4879TIP3    H238091   7.141   0.897   0.581
 4880TIP3   OH238092   7.019   0.766   1.446
 4880TIP3    H138093   7.015   0.854   1.486
 4880TIP3    H238094   6.955   0.780   1.373
 4881TIP3   OH238095   6.194   0.999   0.696
 4881TIP3    H138096   6.184   0.957   0.608
 4881TIP3    H238097   6.253   0.936   0.743
 4882TIP3   OH238098   6.349   1.344   0.973
 4882TIP3    H138099   6.359   1.328   0.878
 4882TIP3    H238100   6.423   1.295   1.014
 4883TIP3   OH238101   6.219   0.874   1.085
 4883TIP3    H138102   6.259   0.870   0.994
 4883TIP3    H238103   6.271   0.947   1.126
 4884TIP3   OH238104   6.894   1.457   1.145
 4884TIP3    H138105   6.865   1.534   1.199
 4884TIP3    H238106   6.859   1.383   1.199
 4885TIP3   OH238107   6.353   1.319   1.531
 4885TIP3    H138108   6.288   1.374   1.580
 4885TIP3    H238109   6.305   1.309   1.446
 4886TIP3   OH238110   6.946   0.861   0.291
 4886TIP3    H138111   6.998   0.886   0.371
 4886TIP3    H238112   6.977   0.927   0.226
 4887TIP3   OH238113   6.040   0.921   1.466
 4887TIP3    H138114   6.060   1.005   1.507
 4887TIP3    H238115   5.954   0.900   1.507
 4888TIP3   OH238116   6.670   1.505   0.629
 4888TIP3    H138117   6.731   1.539   0.696
 4888TIP3    H238118   6.640   1.585   0.585
 4889TIP3   OH238119   6.176   1.495   1.620
 4889TIP3    H138120   6.166   1.541   1.534
 4889TIP3    H238121   6.084   1.479   1.647
 4890TIP3   OH238122   7.339   0.085   0.282
 4890TIP3    H138123   7.259   0.114   0.332
 4890TIP3    H238124   7.342   0.155   0.213
 4891TIP3   OH238125   6.097   0.905   0.457
 4891TIP3    H138126   6.051   0.987   0.427
 4891TIP3    H238127   6.032   0.836   0.440
 4892TIP3   OH238128   7.399   1.486   0.088
 4892TIP3    H138129   7.447   1.570   0.072
 4892TIP3    H238130   7.474   1.427   0.106
 4893TIP3   OH238131   5.755   1.135   1.397
 4893TIP3    H138132   5.722   1.137   1.307
 4893TIP3    H238133   5.785   1.042   1.401
 4894TIP3   OH238134   5.667   1.452   1.086
 4894TIP3    H138135   5.763   1.446   1.082
 4894TIP3    H238136   5.653   1.548   1.103
 4895TIP3   OH238137   7.501   1.520   1.609
 4895TIP3    H138138   7.514   1.425   1.594
 4895TIP3    H238139   7.418   1.524   1.660
 4896TIP3   OH238140   6.592   1.444   1.512
 4896TIP3    H138141   6.594   1.525   1.568
 4896TIP3    H238142   6.502   1.406   1.530
 4897TIP3   OH238143   6.680   1.825   0.461
 4897TIP3    H138144   6.675   1.869   0.374
 4897TIP3    H238145   6.663   1.902   0.519
 4898TIP3   OH238146   6.029   1.690   0.670
 4898TIP3    H138147   6.046   1.649   0.758
 4898TIP3    H238148   5.943   1.652   0.645
 4899TIP3   OH238149   6.948   1.765   0.164
 4899TIP3    H138150   7.018   1.704   0.133
 4899TIP3    H238151   6.959   1.757   0.261
 4900TIP3   OH238152   6.934   1.734   0.432
 4900TIP3    H138153   6.837   1.747   0.444
 4900TIP3    H238154   6.954   1.671   0.502
 4901TIP3   OH238155   7.200   0.646   1.664
 4901TIP3    H138156   7.129   0.681   1.608
 4901TIP3    H238157   7.232   0.569   1.614
 4902TIP3   OH238158   5.965   1.301   1.448
 4902TIP3    H138159   5.981   1.272   1.540
 4902TIP3    H238160   5.879   1.256   1.431
 4903TIP3   OH238161   6.249   0.208   1.028
 4903TIP3    H138162   6.168   0.224   0.977
 4903TIP3    H238163   6.228   0.257   1.110
 4904TIP3   OH238164   6.640   0.137   1.451
 4904TIP3    H138165   6.694   0.055   1.446
 4904TIP3    H238166   6.581   0.123   1.374
 4905TIP3   OH238167   6.998   0.502   1.481
 4905TIP3    H138168   6.941   0.489   1.559
 4905TIP3    H238169   6.983   0.595   1.456
 4906TIP3   OH238170   7.066   1.014   0.099
 4906TIP3    H138171   7.062   1.044   0.006
 4906TIP3    H238172   7.148   1.061   0.124
 4907TIP3   OH238173   6.643   0.367   0.138
 4907TIP3    H138174   6.609   0.343   0.226
 4907TIP3    H238175   6.607   0.296   0.084
 4908TIP3   OH238176   6.240   0.630   1.188
 4908TIP3    H138177   6.155   0.623   1.237
 4908TIP3    H238178   6.235   0.725   1.161
 4909TIP3   OH238179   6.248   0.635   0.665
 4909TIP3    H138180   6.151   0.632   0.652
 4909TIP3    H238181   6.278   0.627   0.572
 4910TIP3   OH238182   6.797   0.676   0.517
 4910TIP3    H138183   6.770   0.764   0.481
 4910TIP3    H238184   6.868   0.650   0.457
 4911TIP3   OH238185   6.695   0.730   1.651
 4911TIP3    H138186   6.642   0.654   1.681
 4911TIP3    H238187   6.711   0.772   1.738
 4912TIP3   OH238188   6.848   0.682   0.856
 4912TIP3    H138189   6.828   0.768   0.816
 4912TIP3    H238190   6.855   0.626   0.778
 4913TIP3   OH238191   5.986   0.657   1.297
 4913TIP3    H138192   6.013   0.694   1.383
 4913TIP3    H238193   5.958   0.567   1.327
 4914TIP3   OH238194   6.331   0.406   0.056
 4914TIP3    H138195   6.288   0.373   0.139
 4914TIP3    H238196   6.316   0.502   0.058
 4915TIP3   OH238197   5.705   0.396   0.742
 4915TIP3    H138198   5.749   0.403   0.829
 4915TIP3    H238199   5.763   0.336   0.694
 4916TIP3   OH238200   5.796   0.408   0.342
 4916TIP3    H138201   5.845   0.444   0.266
 4916TIP3    H238202   5.748   0.488   0.373
 4917TIP3   OH238203   6.792   0.809   1.258
 4917TIP3    H138204   6.844   0.745   1.205
 4917TIP3    H238205   6.741   0.750   1.318
 4918TIP3   OH238206   6.504   0.383   0.766
 4918TIP3    H138207   6.410   0.358   0.781
 4918TIP3    H238208   6.545   0.357   0.851
 4919TIP3   OH238209   5.974   0.578   0.645
 4919TIP3    H138210   5.883   0.592   0.609
 4919TIP3    H238211   5.998   0.490   0.607
 4920TIP3   OH238212   6.300   0.580   0.398
 4920TIP3    H138213   6.396   0.592   0.415
 4920TIP3    H238214   6.284   0.630   0.315
 4921TIP3   OH238215   6.946   0.336   1.101
 4921TIP3    H138216   6.869   0.326   1.161
 4921TIP3    H238217   6.909   0.313   1.014
 4922TIP3   OH238218   6.231   0.674   0.152
 4922TIP3    H138219   6.161   0.668   0.085
 4922TIP3    H238220   6.304   0.721   0.105
 4923TIP3   OH238221   7.215   1.870   1.722
 4923TIP3    H138222   7.265   1.904   1.644
 4923TIP3    H238223   7.252   1.927   1.791
 4924TIP3   OH238224   6.003   1.158   1.680
 4924TIP3    H138225   6.065   1.185   1.751
 4924TIP3    H238226   5.931   1.115   1.731
 4925TIP3   OH238227   6.574   0.693   0.921
 4925TIP3    H138228   6.664   0.653   0.912
 4925TIP3    H238229   6.529   0.626   0.975
 4926TIP3   OH238230   6.058   0.316   0.583
 4926TIP3    H138231   6.017   0.249   0.642
 4926TIP3    H238232   6.117   0.264   0.526
 4927TIP3   OH238233   6.495   0.508   1.181
 4927TIP3    H138234   6.421   0.572   1.189
 4927TIP3    H238235   6.563   0.550   1.236
 4928TIP3   OH238236   6.530   1.127   0.394
 4928TIP3    H138237   6.457   1.073   0.355
 4928TIP3    H238238   6.485   1.163   0.474
 4929TIP3   OH238239   7.247   1.070   1.242
 4929TIP3    H138240   7.303   1.130   1.188
 4929TIP3    H238241   7.167   1.063   1.185
 4930TIP3   OH238242   6.932   0.420   0.135
 4930TIP3    H138243   6.835   0.426   0.133
 4930TIP3    H238244   6.955   0.481   0.208
 4931TIP3   OH238245   6.657   1.170   1.495
 4931TIP3    H138246   6.609   1.116   1.559
 4931TIP3    H238247   6.627   1.260   1.515
 4932TIP3   OH238248   7.007   0.579   0.341
 4932TIP3    H138249   7.077   0.585   0.409
 4932TIP3    H238250   7.016   0.667   0.299
 4933TIP3   OH238251   6.046   1.103   0.912
 4933TIP3    H138252   6.095   1.077   0.831
 4933TIP3    H238253   6.068   1.031   0.973
 4934TIP3   OH238254   6.738   1.260   0.269
 4934TIP3    H138255   6.691   1.342   0.297
 4934TIP3    H238256   6.669   1.192   0.283
 4935TIP3   OH238257   5.757   0.850   1.467
 4935TIP3    H138258   5.713   0.812   1.546
 4935TIP3    H238259   5.688   0.830   1.400
 4936TIP3   OH238260   6.418   0.875   1.651
 4936TIP3    H138261   6.388   0.797   1.603
 4936TIP3    H238262   6.498   0.842   1.696
 4937TIP3   OH238263   6.920   1.393   1.510
 4937TIP3    H138264   6.838   1.413   1.461
 4937TIP3    H238265   6.896   1.431   1.597
 4938TIP3   OH238266   7.442   0.651   0.343
 4938TIP3    H138267   7.385   0.629   0.266
 4938TIP3    H238268   7.462   0.745   0.319
 4939TIP3   OH238269   7.460   1.209   1.600
 4939TIP3    H138270   7.373   1.233   1.561
 4939TIP3    H238271   7.512   1.188   1.518
 4940TIP3   OH238272   7.341   1.461   0.363
 4940TIP3    H138273   7.252   1.432   0.386
 4940TIP3    H238274   7.343   1.465   0.265
 4941TIP3   OH238275   7.047   1.007   1.059
 4941TIP3    H138276   6.958   1.024   1.024
 4941TIP3    H238277   7.067   0.924   1.011
 4942TIP3   OH238278   6.269   1.420   0.708
 4942TIP3    H138279   6.312   1.506   0.689
 4942TIP3    H238280   6.185   1.431   0.662
 4943TIP3   OH238281   5.855   0.935   0.128
 4943TIP3    H138282   5.901   0.993   0.193
 4943TIP3    H238283   5.762   0.943   0.156
 4944TIP3   OH238284   6.396   1.198   0.617
 4944TIP3    H138285   6.351   1.282   0.643
 4944TIP3    H238286   6.352   1.133   0.674
 4945TIP3   OH238287   6.476   1.613   1.324
 4945TIP3    H138288   6.553   1.666   1.298
 4945TIP3    H238289   6.517   1.557   1.392
 4946TIP3   OH238290   6.299   1.665   0.593
 4946TIP3    H138291   6.205   1.685   0.615
 4946TIP3    H238292   6.341   1.748   0.624
 4947TIP3   OH238293   6.775   1.200   1.250
 4947TIP3    H138294   6.739   1.190   1.341
 4947TIP3    H238295   6.794   1.107   1.227
 4948TIP3   OH238296   7.033   1.321   0.189
 4948TIP3    H138297   7.051   1.266   0.268
 4948TIP3    H238298   6.941   1.295   0.176
 4949TIP3   OH238299   7.074   1.660   1.497
 4949TIP3    H138300   6.995   1.610   1.465
 4949TIP3    H238301   7.098   1.717   1.420
 4950TIP3   OH238302   7.484   1.755   0.178
 4950TIP3    H138303   7.542   1.816   0.132
 4950TIP3    H238304   7.406   1.814   0.194
 4951TIP3   OH238305   5.939   0.406   1.407
 4951TIP3    H138306   5.848   0.423   1.436
 4951TIP3    H238307   5.963   0.335   1.472
 4952TIP3   OH238308   7.123   1.165   0.400
 4952TIP3    H138309   7.103   1.079   0.444
 4952TIP3    H238310   7.221   1.163   0.397
 4953TIP3   OH238311   5.880   1.568   1.260
 4953TIP3    H138312   5.934   1.488   1.264
 4953TIP3    H238313   5.910   1.615   1.339
 4954TIP3   OH238314   6.330   1.381   0.254
 4954TIP3    H138315   6.414   1.358   0.296
 4954TIP3    H238316   6.328   1.478   0.271
 4955TIP3   OH238317   5.989   1.105   0.289
 4955TIP3    H138318   5.918   1.144   0.345
 4955TIP3    H238319   6.026   1.185   0.246
 4956TIP3   OH238320   6.764   0.361   1.363
 4956TIP3    H138321   6.831   0.388   1.427
 4956TIP3    H238322   6.728   0.281   1.408
 4957TIP3   OH238323   6.840   0.324   0.454
 4957TIP3    H138324   6.847   0.403   0.398
 4957TIP3    H238325   6.893   0.353   0.532
 4958TIP3   OH238326   6.615   1.503   0.306
 4958TIP3    H138327   6.552   1.573   0.327
 4958TIP3    H238328   6.679   1.550   0.249
 4959TIP3   OH238329   6.557   0.535   0.523
 4959TIP3    H138330   6.639   0.586   0.535
 4959TIP3    H238331   6.542   0.488   0.609
 4960TIP3   OH238332   6.653   0.622   1.412
 4960TIP3    H138333   6.666   0.661   1.502
 4960TIP3    H238334   6.671   0.527   1.424
 4961TIP3   OH238335   6.644   0.188   0.604
 4961TIP3    H138336   6.620   0.259   0.667
 4961TIP3    H238337   6.717   0.228   0.553
 4962TIP3   OH238338   6.353   1.638   0.315
 4962TIP3    H138339   6.389   1.717   0.273
 4962TIP3    H238340   6.326   1.669   0.405
 4963TIP3   OH238341   6.230   0.344   0.292
 4963TIP3    H138342   6.240   0.430   0.339
 4963TIP3    H238343   6.311   0.302   0.328
 4964TIP3   OH238344   7.218   0.364   1.482
 4964TIP3    H138345   7.137   0.421   1.491
 4964TIP3    H238346   7.203   0.331   1.390
 4965TIP3   OH238347   7.096   0.776   0.912
 4965TIP3    H138348   7.021   0.716   0.900
 4965TIP3    H238349   7.154   0.721   0.970
 4966TIP3   OH238350   6.053   1.349   0.154
 4966TIP3    H138351   6.129   1.390   0.199
 4966TIP3    H238352   6.102   1.290   0.093
 4967TIP3   OH238353   5.879   0.651   0.109
 4967TIP3    H138354   5.893   0.746   0.126
 4967TIP3    H238355   5.809   0.651   0.042
 4968TIP3   OH238356   7.246   1.681   1.077
 4968TIP3    H138357   7.220   1.749   1.011
 4968TIP3    H238358   7.343   1.697   1.080
 4969TIP3   OH238359   5.934   0.155   0.985
 4969TIP3    H138360   5.914   0.147   0.890
 4969TIP3    H238361   5.932   0.060   1.009
 4970TIP3   OH238362   5.820   1.492   0.555
 4970TIP3    H138363   5.747   1.539   0.599
 4970TIP3    H238364   5.825   1.543   0.472
 4971TIP3   OH238365   5.768   1.737   1.669
 4971TIP3    H138366   5.857   1.753   1.704
 4971TIP3    H238367   5.721   1.708   1.749
 4972TIP3   OH238368   6.294   1.661   1.830
 4972TIP3    H138369   6.365   1.601   1.858
 4972TIP3    H238370   6.260   1.616   1.751
 4973TIP3   OH238371   6.718   1.612   0.087
 4973TIP3    H138372   6.668   1.540   0.043
 4973TIP3    H238373   6.802   1.613   0.039
 4974TIP3   OH238374   6.873   1.530   1.745
 4974TIP3    H138375   6.838   1.447   1.787
 4974TIP3    H238376   6.958   1.537   1.793
 4975TIP3   OH238377   7.140   1.605   0.035
 4975TIP3    H138378   7.154   1.522   0.084
 4975TIP3    H238379   7.234   1.630   0.020
 4976TIP3   OH238380   5.758   1.115   1.810
 4976TIP3    H138381   5.733   1.020   1.812
 4976TIP3    H238382   5.708   1.148   1.732
 4977TIP3   OH238383   6.227   1.143   0.022
 4977TIP3    H138384   6.282   1.136   0.102
 4977TIP3    H238385   6.282   1.093  -0.042
 4978TIP3   OH238386   6.420   1.143   1.716
 4978TIP3    H138387   6.391   1.194   1.636
 4978TIP3    H238388   6.417   1.049   1.688
 4979TIP3   OH238389   6.973   1.107   1.508
 4979TIP3    H138390   7.057   1.157   1.510
 4979TIP3    H238391   6.913   1.183   1.499
 4980TIP3   OH238392   5.824   0.832   1.813
 4980TIP3    H138393   5.851   0.751   1.769
 4980TIP3    H238394   5.810   0.797   1.905
 4981TIP3   OH238395   6.346   0.968   0.262
 4981TIP3    H138396   6.269   0.925   0.304
 4981TIP3    H238397   6.378   0.898   0.203
 4982TIP3   OH238398   6.238   0.745   1.455
 4982TIP3    H138399   6.180   0.823   1.470
 4982TIP3    H238400   6.310   0.788   1.402
 4983TIP3   OH238401   6.440   0.806   0.052
 4983TIP3    H138402   6.476   0.850  -0.027
 4983TIP3    H238403   6.524   0.800   0.106
 4984TIP3   OH238404   6.760   1.007   1.854
 4984TIP3    H138405   6.851   0.993   1.884
 4984TIP3    H238406   6.717   0.927   1.890
 4985TIP3   OH238407   7.344   1.072   8.490
 4985TIP3    H138408   7.377   1.003   8.430
 4985TIP3    H238409   7.412   1.141   8.485
 4986TIP3   OH238410   6.278   0.516   1.575
 4986TIP3    H138411   6.309   0.452   1.508
 4986TIP3    H238412   6.262   0.595   1.518
 4987TIP3   OH238413   6.352   0.353   1.363
 4987TIP3    H138414   6.413   0.401   1.303
 4987TIP3    H238415   6.270   0.363   1.311
 4988TIP3   OH238416   6.434   0.888   1.353
 4988TIP3    H138417   6.529   0.902   1.359
 4988TIP3    H238418   6.400   0.970   1.311
 4989TIP3   OH238419   6.947   0.628   1.867
 4989TIP3    H138420   6.939   0.551   1.810
 4989TIP3    H238421   7.036   0.662   1.847
 4990TIP3   OH238422   7.060   0.957   1.713
 4990TIP3    H138423   7.019   1.003   1.637
 4990TIP3    H238424   7.155   0.954   1.688
 4991TIP3   OH238425   6.148   0.599   1.797
 4991TIP3    H138426   6.076   0.534   1.785
 4991TIP3    H238427   6.207   0.577   1.723
 4992TIP3   OH238428   6.401   0.092   1.305
 4992TIP3    H138429   6.389   0.182   1.342
 4992TIP3    H238430   6.309   0.064   1.305
 4993TIP3   OH238431   6.543   0.503   1.721
 4993TIP3    H138432   6.527   0.491   1.816
 4993TIP3    H238433   6.454   0.488   1.682
 4994TIP3   OH238434   6.818   0.409   1.683
 4994TIP3    H138435   6.729   0.447   1.695
 4994TIP3    H238436   6.809   0.333   1.743
 4995TIP3   OH238437   5.945   0.409   1.814
 4995TIP3    H138438   5.961   0.353   1.736
 4995TIP3    H238439   5.903   0.348   1.876
 4996TIP3   OH238440   6.406   0.092   1.617
 4996TIP3    H138441   6.427  -0.000   1.640
 4996TIP3    H238442   6.472   0.111   1.547
 4997TIP3   OH238443   6.487   0.195   1.851
 4997TIP3    H138444   6.486   0.153   1.763
 4997TIP3    H238445   6.394   0.213   1.865
 4998TIP3   OH238446   6.410   1.886   0.165
 4998TIP3    H138447   6.498   1.926   0.180
 4998TIP3    H238448   6.357   1.944   0.221
 4999TIP3   OH238449   5.761   1.303   0.138
 4999TIP3    H138450   5.858   1.319   0.135
 4999TIP3    H238451   5.745   1.287   0.043
 5000TIP3   OH238452   5.647   1.844   0.637
 5000TIP3    H138453   5.581   1.790   0.588
 5000TIP3    H238454   5.684   1.778   0.698
 5001TIP3   OH238455   5.741   1.656   0.814
 5001TIP3    H138456   5.684   1.590   0.856
 5001TIP3    H238457   5.798   1.685   0.890
 5002TIP3   OH238458   7.494   1.761   1.127
 5002TIP3    H138459   7.494   1.775   1.223
 5002TIP3    H238460   7.510   1.852   1.099
 5003TIP3   OH238461   7.425   1.698   1.413
 5003TIP3    H138462   7.391   1.633   1.348
 5003TIP3    H238463   7.449   1.636   1.485
 5004TIP3   OH238464   7.327   1.304   1.907
 5004TIP3    H138465   7.231   1.293   1.918
 5004TIP3    H238466   7.336   1.334   1.816
 5005TIP3   OH238467   7.404   1.118   0.390
 5005TIP3    H138468   7.482   1.169   0.419
 5005TIP3    H238469   7.399   1.051   0.460
 5006TIP3   OH238470   7.468   0.897   0.594
 5006TIP3    H138471   7.379   0.867   0.627
 5006TIP3    H238472   7.507   0.934   0.676
 5007TIP3   OH238473   7.451   1.177   1.116
 5007TIP3    H138474   7.459   1.143   1.026
 5007TIP3    H238475   7.473   1.272   1.102
 5008TIP3   OH238476   7.297   1.463   1.326
 5008TIP3    H138477   7.229   1.504   1.382
 5008TIP3    H238478   7.257   1.466   1.236
 5009TIP3   OH238479   7.463   0.903   0.218
 5009TIP3    H138480   7.384   0.915   0.163
 5009TIP3    H238481   7.467   0.989   0.266
 5010TIP3   OH238482   7.237   0.635   0.105
 5010TIP3    H138483   7.304   0.679   0.050
 5010TIP3    H238484   7.241   0.544   0.066
 5011TIP3   OH238485   7.240   0.805   0.685
 5011TIP3    H138486   7.204   0.727   0.640
 5011TIP3    H238487   7.204   0.795   0.776
 5012TIP3   OH238488   5.734   1.005   1.075
 5012TIP3    H138489   5.737   0.980   0.981
 5012TIP3    H238490   5.825   0.982   1.106
 5013TIP3   OH238491   7.329   0.970   1.666
 5013TIP3    H138492   7.395   0.899   1.646
 5013TIP3    H238493   7.376   1.050   1.635
 5014TIP3   OH238494   7.463   0.747   1.627
 5014TIP3    H138495   7.369   0.735   1.653
 5014TIP3    H238496   7.504   0.673   1.677
 5015TIP3   OH238497   7.225   0.380  -0.004
 5015TIP3    H138498   7.244   0.304   0.053
 5015TIP3    H238499   7.127   0.381  -0.010
 5016TIP3   OH238500   7.205   0.596   0.513
 5016TIP3    H138501   7.230   0.502   0.529
 5016TIP3    H238502   7.266   0.618   0.440
 5017TIP3   OH238503   7.232   0.619   1.071
 5017TIP3    H138504   7.322   0.594   1.041
 5017TIP3    H238505   7.238   0.599   1.165
 5018TIP3   OH238506   7.253   0.663   1.357
 5018TIP3    H138507   7.168   0.702   1.386
 5018TIP3    H238508   7.297   0.738   1.312
 5019TIP3   OH238509   5.701   0.521   1.746
 5019TIP3    H138510   5.786   0.521   1.795
 5019TIP3    H238511   5.715   0.445   1.684
 5020TIP3   OH238512   7.443   0.205   1.781
 5020TIP3    H138513   7.484   0.115   1.772
 5020TIP3    H238514   7.466   0.247   1.696
 5021TIP3   OH238515   7.265   0.335   0.542
 5021TIP3    H138516   7.283   0.271   0.614
 5021TIP3    H238517   7.193   0.288   0.493
 5022TIP3   OH238518   5.807   0.390   0.992
 5022TIP3    H138519   5.843   0.299   1.007
 5022TIP3    H238520   5.876   0.445   1.032
 5023TIP3   OH238521   5.653   0.678   1.076
 5023TIP3    H138522   5.717   0.662   1.003
 5023TIP3    H238523   5.702   0.739   1.132
 5024TIP3   OH238524   7.466   0.318   1.536
 5024TIP3    H138525   7.375   0.356   1.524
 5024TIP3    H238526   7.442   0.223   1.530
 5025TIP3   OH238527   7.460   0.254   0.105
 5025TIP3    H138528   7.467   0.265   0.008
 5025TIP3    H238529   7.503   0.338   0.134
 5026TIP3   OH238530   5.675   0.212   0.478
 5026TIP3    H138531   5.590   0.258   0.487
 5026TIP3    H238532   5.722   0.281   0.424
 5027TIP3   OH238533   7.156   1.757   0.688
 5027TIP3    H138534   7.213   1.758   0.608
 5027TIP3    H238535   7.221   1.781   0.756
 5028TIP3   OH238536   5.695   0.167   1.256
 5028TIP3    H138537   5.700   0.220   1.339
 5028TIP3    H238538   5.642   0.228   1.201
 5029TIP3   OH238539   5.910   1.443   1.731
 5029TIP3    H138540   5.838   1.484   1.682
 5029TIP3    H238541   5.881   1.445   1.824
 5030TIP3   OH238542   6.207   1.602   1.374
 5030TIP3    H138543   6.193   1.694   1.340
 5030TIP3    H238544   6.305   1.596   1.365
 5031TIP3   OH238545   6.618   1.700   1.618
 5031TIP3    H138546   6.621   1.680   1.713
 5031TIP3    H238547   6.709   1.732   1.599
 5032TIP3   OH238548   6.844   1.834   1.569
 5032TIP3    H138549   6.920   1.784   1.534
 5032TIP3    H238550   6.878   1.870   1.653
 5033TIP3   OH238551   7.337   0.090   1.485
 5033TIP3    H138552   7.261   0.151   1.484
 5033TIP3    H238553   7.310   0.030   1.414
 5034TIP3   OH238554   5.930   1.874   1.346
 5034TIP3    H138555   5.861   1.932   1.304
 5034TIP3    H238556   5.910   1.887   1.439
 5035TIP3   OH238557   6.170   1.832   1.249
 5035TIP3    H138558   6.075   1.850   1.272
 5035TIP3    H238559   6.185   1.895   1.176
 5036TIP3   OH238560   6.674   1.804   1.164
 5036TIP3    H138561   6.609   1.839   1.101
 5036TIP3    H238562   6.674   1.876   1.231
 5037TIP3   OH238563   6.855   1.669   1.308
 5037TIP3    H138564   6.790   1.714   1.249
 5037TIP3    H238565   6.931   1.729   1.291
 5038TIP3   OH238566   7.107   1.818   1.269
 5038TIP3    H138567   7.117   1.906   1.230
 5038TIP3    H238568   7.160   1.765   1.205
 5039TIP3   OH238569   5.888   1.725   1.028
 5039TIP3    H138570   5.863   1.687   1.116
 5039TIP3    H238571   5.975   1.679   1.011
 5040TIP3   OH238572   6.109   1.604   0.916
 5040TIP3    H138573   6.103   1.510   0.942
 5040TIP3    H238574   6.200   1.624   0.948
 5041TIP3   OH238575   6.349   1.625   1.033
 5041TIP3    H138576   6.363   1.528   1.020
 5041TIP3    H238577   6.365   1.634   1.128
 5042TIP3   OH238578   6.700   0.268   0.939
 5042TIP3    H138579   6.633   0.198   0.936
 5042TIP3    H238580   6.770   0.224   0.887
 5043TIP3   OH238581   7.177   0.168   0.912
 5043TIP3    H138582   7.237   0.158   0.835
 5043TIP3    H238583   7.120   0.090   0.904
 5044TIP3   OH238584   7.364   0.153   0.711
 5044TIP3    H138585   7.420   0.139   0.633
 5044TIP3    H238586   7.416   0.217   0.764
 5045TIP3   OH238587   5.907   0.135   0.696
 5045TIP3    H138588   5.864   0.148   0.610
 5045TIP3    H238589   5.934   0.040   0.689
 5046TIP3   OH238590   5.775   0.102   0.227
 5046TIP3    H138591   5.862   0.130   0.189
 5046TIP3    H238592   5.730   0.189   0.226
 5047TIP3   OH238593   6.384   0.116   0.658
 5047TIP3    H138594   6.474   0.138   0.626
 5047TIP3    H238595   6.399   0.126   0.755
 5048TIP3   OH238596   6.901   0.143   0.788
 5048TIP3    H138597   6.942   0.168   0.704
 5048TIP3    H238598   6.908   0.046   0.786
 5049TIP3   OH238599   7.101   0.160   0.397
 5049TIP3    H138600   7.015   0.201   0.376
 5049TIP3    H238601   7.076   0.065   0.392
 5050TIP3   OH238602   5.775   1.661   0.356
 5050TIP3    H138603   5.687   1.661   0.314
 5050TIP3    H238604   5.800   1.753   0.334
 5051TIP3   OH238605   5.993   0.216   0.127
 5051TIP3    H138606   6.076   0.195   0.083
 5051TIP3    H238607   6.012   0.306   0.159
 5052TIP3   OH238608   6.501   0.308   0.376
 5052TIP3    H138609   6.553   0.244   0.427
 5052TIP3    H238610   6.520   0.390   0.427
 5053TIP3   OH238611   6.697   1.855   0.191
 5053TIP3    H138612   6.790   1.845   0.161
 5053TIP3    H238613   6.669   1.763   0.170
 5054TIP3   OH238614   7.339   1.714   0.486
 5054TIP3    H138615   7.358   1.636   0.429
 5054TIP3    H238616   7.321   1.783   0.418
 5055TIP3   OH238617   6.006   0.198   1.574
 5055TIP3    H138618   5.916   0.161   1.580
 5055TIP3    H238619   6.050   0.159   1.652
 5056TIP3   OH238620   6.127   0.135   1.807
 5056TIP3    H138621   6.207   0.093   1.775
 5056TIP3    H238622   6.082   0.064   1.856
 5057TIP3   OH238623   6.000   1.780   0.078
 5057TIP3    H138624   5.941   1.793   0.154
 5057TIP3    H238625   6.040   1.694   0.098
 5058TIP3   OH238626   7.007   0.062   1.823
 5058TIP3    H138627   6.988  -0.034   1.815
 5058TIP3    H238628   7.018   0.092   1.732
 5059TIP3   OH238629   7.257   1.585   1.684
 5059TIP3    H138630   7.177   1.585   1.628
 5059TIP3    H238631   7.266   1.681   1.696
 5060TIP3   OH238632   7.567   0.605   0.581
 5060TIP3    H138633   7.532   0.693   0.606
 5060TIP3    H238634   7.517   0.595   0.497
 5061TIP3   OH238635   7.634   0.970   0.795
 5061TIP3    H138636   7.675   0.883   0.786
 5061TIP3    H238637   7.710   1.028   0.780
 5062TIP3   OH238638   7.635   1.254   0.441
 5062TIP3    H138639   7.637   1.284   0.348
 5062TIP3    H238640   7.607   1.336   0.487
 5063TIP3   OH238641   7.556   1.134   1.367
 5063TIP3    H138642   7.514   1.140   1.278
 5063TIP3    H238643   7.583   1.039   1.371
 5064TIP3   OH238644   7.547   1.420   1.045
 5064TIP3    H138645   7.642   1.416   1.019
 5064TIP3    H238646   7.550   1.491   1.111
 5065TIP3   OH238647   7.539   0.381   0.764
 5065TIP3    H138648   7.632   0.408   0.775
 5065TIP3    H238649   7.509   0.449   0.702
 5066TIP3   OH238650   7.604   0.433   0.239
 5066TIP3    H138651   7.694   0.466   0.230
 5066TIP3    H238652   7.561   0.506   0.287
 5067TIP3   OH238653   7.593   0.879   1.432
 5067TIP3    H138654   7.557   0.818   1.501
 5067TIP3    H238655   7.538   0.848   1.357
 5068TIP3   OH238656   7.609   1.797   1.710
 5068TIP3    H138657   7.706   1.795   1.715
 5068TIP3    H238658   7.590   1.711   1.669
 5069TIP3   OH238659   7.644   1.098   1.757
 5069TIP3    H138660   7.626   1.009   1.725
 5069TIP3    H238661   7.580   1.152   1.708
 5070TIP3   OH238662   7.621   1.336   0.112
 5070TIP3    H138663   7.720   1.327   0.115
 5070TIP3    H238664   7.612   1.319   0.016
 5071TIP3   OH238665   7.493   1.840   0.660
 5071TIP3    H138666   7.444   1.783   0.596
 5071TIP3    H238667   7.504   1.776   0.734
 5072TIP3   OH238668   7.551   1.651   0.831
 5072TIP3    H138669   7.502   1.580   0.876
 5072TIP3    H238670   7.630   1.656   0.886
 5073TIP3   OH238671   7.605   0.943   1.076
 5073TIP3    H138672   7.590   0.969   0.983
 5073TIP3    H238673   7.684   1.000   1.094
 5074TIP3   OH238674   7.536   0.510   1.707
 5074TIP3    H138675   7.630   0.531   1.686
 5074TIP3    H238676   7.525   0.430   1.653
 5075TIP3   OH238677   7.513   0.633   1.039
 5075TIP3    H138678   7.609   0.645   1.051
 5075TIP3    H238679   7.482   0.720   1.069
 5076TIP3   OH238680   7.548   0.249   0.444
 5076TIP3    H138681   7.460   0.280   0.471
 5076TIP3    H238682   7.559   0.293   0.356
 5077TIP3   OH238683   7.525   0.193   1.281
 5077TIP3    H138684   7.496   0.212   1.371
 5077TIP3    H238685   7.443   0.211   1.231
 5078TIP3   OH238686   7.650   1.663   0.370
 5078TIP3    H138687   7.596   1.709   0.302
 5078TIP3    H238688   7.671   1.734   0.433
 5079TIP3   OH238689   1.208   2.896   0.690
 5079TIP3    H138690   1.225   2.972   0.749
 5079TIP3    H238691   1.127   2.927   0.646
 5080TIP3   OH238692   1.090   2.774   1.025
 5080TIP3    H138693   1.095   2.727   1.112
 5080TIP3    H238694   1.007   2.740   0.986
 5081TIP3   OH238695   0.278   2.772   1.155
 5081TIP3    H138696   0.243   2.703   1.214
 5081TIP3    H238697   0.353   2.801   1.208
 5082TIP3   OH238698   1.408   3.091   0.876
 5082TIP3    H138699   1.406   3.019   0.942
 5082TIP3    H238700   1.423   3.168   0.934
 5083TIP3   OH238701   0.390   3.220   1.003
 5083TIP3    H138702   0.368   3.128   0.978
 5083TIP3    H238703   0.486   3.211   0.984
 5084TIP3   OH238704   0.118   2.612   0.568
 5084TIP3    H138705   0.067   2.685   0.533
 5084TIP3    H238706   0.046   2.549   0.590
 5085TIP3   OH238707   0.235   2.798   0.806
 5085TIP3    H138708   0.233   2.711   0.852
 5085TIP3    H238709   0.248   2.766   0.714
 5086TIP3   OH238710   1.133   3.625   0.840
 5086TIP3    H138711   1.203   3.571   0.797
 5086TIP3    H238712   1.119   3.568   0.917
 5087TIP3   OH238713   0.901   3.084   1.119
 5087TIP3    H138714   0.931   3.027   1.047
 5087TIP3    H238715   0.987   3.098   1.167
 5088TIP3   OH238716   1.765   2.199   1.119
 5088TIP3    H138717   1.770   2.261   1.194
 5088TIP3    H238718   1.848   2.222   1.074
 5089TIP3   OH238719   1.268   2.495   1.133
 5089TIP3    H138720   1.289   2.405   1.162
 5089TIP3    H238721   1.237   2.483   1.042
 5090TIP3   OH238722   0.545   2.279   0.810
 5090TIP3    H138723   0.553   2.361   0.756
 5090TIP3    H238724   0.525   2.217   0.737
 5091TIP3   OH238725   1.307   2.304   0.681
 5091TIP3    H138726   1.362   2.270   0.756
 5091TIP3    H238727   1.361   2.380   0.652
 5092TIP3   OH238728   0.236   2.547   0.883
 5092TIP3    H138729   0.289   2.494   0.946
 5092TIP3    H238730   0.259   2.501   0.799
 5093TIP3   OH238731   0.641   2.713   0.815
 5093TIP3    H138732   0.728   2.679   0.845
 5093TIP3    H238733   0.612   2.635   0.762
 5094TIP3   OH238734   1.785   2.342   1.365
 5094TIP3    H138735   1.749   2.425   1.326
 5094TIP3    H238736   1.822   2.375   1.448
 5095TIP3   OH238737   0.458   2.201   1.221
 5095TIP3    H138738   0.417   2.255   1.151
 5095TIP3    H238739   0.393   2.208   1.293
 5096TIP3   OH238740   1.116   3.130   0.573
 5096TIP3    H138741   1.144   3.115   0.481
 5096TIP3    H238742   1.131   3.225   0.584
 5097TIP3   OH238743   0.688   2.957   1.238
 5097TIP3    H138744   0.629   3.028   1.268
 5097TIP3    H238745   0.764   3.009   1.203
 5098TIP3   OH238746   1.486   2.251   0.876
 5098TIP3    H138747   1.480   2.214   0.966
 5098TIP3    H238748   1.566   2.305   0.885
 5099TIP3   OH238749   0.393   2.390   1.036
 5099TIP3    H138750   0.453   2.449   1.087
 5099TIP3    H238751   0.452   2.354   0.967
 5100TIP3   OH238752   0.550   3.204   1.342
 5100TIP3    H138753   0.602   3.284   1.367
 5100TIP3    H238754   0.497   3.184   1.422
 5101TIP3   OH238755   0.215   3.154   0.485
 5101TIP3    H138756   0.127   3.132   0.446
 5101TIP3    H238757   0.184   3.227   0.542
 5102TIP3   OH238758   1.486   3.302   1.065
 5102TIP3    H138759   1.395   3.321   1.098
 5102TIP3    H238760   1.513   3.392   1.039
 5103TIP3   OH238761   1.511   2.088   1.205
 5103TIP3    H138762   1.429   2.110   1.157
 5103TIP3    H238763   1.578   2.139   1.156
 5104TIP3   OH238764   0.794   1.949   0.964
 5104TIP3    H138765   0.762   1.858   0.965
 5104TIP3    H238766   0.711   1.995   0.995
 5105TIP3   OH238767   1.317   3.480   0.729
 5105TIP3    H138768   1.346   3.399   0.681
 5105TIP3    H238769   1.397   3.536   0.719
 5106TIP3   OH238770   1.398   3.253   0.589
 5106TIP3    H138771   1.398   3.185   0.518
 5106TIP3    H238772   1.410   3.198   0.668
 5107TIP3   OH238773   1.614   3.134   1.467
 5107TIP3    H138774   1.622   3.059   1.404
 5107TIP3    H238775   1.616   3.209   1.405
 5108TIP3   OH238776   1.050   2.792   0.427
 5108TIP3    H138777   1.024   2.886   0.432
 5108TIP3    H238778   1.136   2.799   0.380
 5109TIP3   OH238779   1.038   2.708   0.153
 5109TIP3    H138780   1.114   2.714   0.215
 5109TIP3    H238781   1.082   2.675   0.074
 5110TIP3   OH238782   1.797   2.770   1.238
 5110TIP3    H138783   1.740   2.849   1.247
 5110TIP3    H238784   1.858   2.804   1.168
 5111TIP3   OH238785   1.421   2.779   0.522
 5111TIP3    H138786   1.358   2.822   0.584
 5111TIP3    H238787   1.490   2.749   0.586
 5112TIP3   OH238788   1.396   2.621   1.458
 5112TIP3    H138789   1.388   2.712   1.493
 5112TIP3    H238790   1.331   2.626   1.386
 5113TIP3   OH238791   0.530   2.935   0.691
 5113TIP3    H138792   0.486   2.870   0.632
 5113TIP3    H238793   0.557   2.870   0.760
 5114TIP3   OH238794   0.682   3.191   0.984
 5114TIP3    H138795   0.719   3.138   0.911
 5114TIP3    H238796   0.755   3.178   1.049
 5115TIP3   OH238797   0.594   2.751   1.091
 5115TIP3    H138798   0.620   2.765   0.998
 5115TIP3    H238799   0.625   2.832   1.137
 5116TIP3   OH238800   1.238   3.340   1.156
 5116TIP3    H138801   1.221   3.417   1.211
 5116TIP3    H238802   1.187   3.270   1.200
 5117TIP3   OH238803   0.690   3.212   1.579
 5117TIP3    H138804   0.621   3.279   1.603
 5117TIP3    H238805   0.640   3.154   1.520
 5118TIP3   OH238806   1.274   2.765   0.298
 5118TIP3    H138807   1.333   2.759   0.377
 5118TIP3    H238808   1.332   2.812   0.233
 5119TIP3   OH238809   0.410   2.822   1.452
 5119TIP3    H138810   0.405   2.894   1.518
 5119TIP3    H238811   0.323   2.778   1.463
 5120TIP3   OH238812   1.037   3.472   0.617
 5120TIP3    H138813   1.043   3.421   0.699
 5120TIP3    H238814   1.083   3.553   0.644
 5121TIP3   OH238815   0.502   3.391   1.609
 5121TIP3    H138816   0.481   3.450   1.534
 5121TIP3    H238817   0.414   3.377   1.649
 5122TIP3   OH238818   1.666   1.921   0.311
 5122TIP3    H138819   1.581   1.918   0.265
 5122TIP3    H238820   1.706   2.001   0.273
 5123TIP3   OH238821   0.406   2.779   0.508
 5123TIP3    H138822   0.371   2.844   0.444
 5123TIP3    H238823   0.389   2.696   0.461
 5124TIP3   OH238824   1.741   3.321   0.101
 5124TIP3    H138825   1.781   3.408   0.089
 5124TIP3    H238826   1.821   3.271   0.127
 5125TIP3   OH238827   0.123   3.016   1.353
 5125TIP3    H138828   0.027   3.012   1.371
 5125TIP3    H238829   0.150   2.922   1.360
 5126TIP3   OH238830   0.101   3.333   1.024
 5126TIP3    H138831   0.135   3.245   0.998
 5126TIP3    H238832   0.165   3.362   1.090
 5127TIP3   OH238833   1.857   3.381   1.608
 5127TIP3    H138834   1.850   3.285   1.628
 5127TIP3    H238835   1.769   3.410   1.641
 5128TIP3   OH238836   0.950   3.317   1.510
 5128TIP3    H138837   0.986   3.379   1.576
 5128TIP3    H238838   0.864   3.289   1.546
 5129TIP3   OH238839   0.996   3.704   0.449
 5129TIP3    H138840   1.013   3.728   0.355
 5129TIP3    H238841   0.999   3.794   0.490
 5130TIP3   OH238842   0.403   3.557   0.652
 5130TIP3    H138843   0.400   3.523   0.743
 5130TIP3    H238844   0.317   3.525   0.617
 5131TIP3   OH238845   1.303   3.650   0.151
 5131TIP3    H138846   1.353   3.571   0.124
 5131TIP3    H238847   1.312   3.645   0.248
 5132TIP3   OH238848   1.290   3.640   0.436
 5132TIP3    H138849   1.195   3.642   0.456
 5132TIP3    H238850   1.325   3.580   0.503
 5133TIP3   OH238851   1.569   2.537   1.646
 5133TIP3    H138852   1.495   2.579   1.598
 5133TIP3    H238853   1.555   2.444   1.622
 5134TIP3   OH238854   0.286   3.198   1.434
 5134TIP3    H138855   0.298   3.166   1.526
 5134TIP3    H238856   0.215   3.135   1.408
 5135TIP3   OH238857   0.567   2.041   1.043
 5135TIP3    H138858   0.475   2.047   1.010
 5135TIP3    H238859   0.557   2.088   1.129
 5136TIP3   OH238860   1.032   1.970   1.388
 5136TIP3    H138861   1.063   1.940   1.476
 5136TIP3    H238862   0.934   1.979   1.399
 5137TIP3   OH238863   1.330   2.353   1.502
 5137TIP3    H138864   1.269   2.326   1.575
 5137TIP3    H238865   1.333   2.450   1.514
 5138TIP3   OH238866   1.419   2.880   0.105
 5138TIP3    H138867   1.406   2.908   0.013
 5138TIP3    H238868   1.516   2.889   0.109
 5139TIP3   OH238869   1.013   2.227   0.154
 5139TIP3    H138870   0.942   2.202   0.218
 5139TIP3    H238871   0.955   2.261   0.083
 5140TIP3   OH238872   0.587   2.505   1.194
 5140TIP3    H138873   0.506   2.516   1.247
 5140TIP3    H238874   0.602   2.597   1.163
 5141TIP3   OH238875   0.576   2.501   0.653
 5141TIP3    H138876   0.480   2.490   0.636
 5141TIP3    H238877   0.611   2.526   0.566
 5142TIP3   OH238878   1.121   2.551   0.516
 5142TIP3    H138879   1.110   2.645   0.491
 5142TIP3    H238880   1.199   2.526   0.462
 5143TIP3   OH238881   0.991   2.611   1.679
 5143TIP3    H138882   0.964   2.531   1.729
 5143TIP3    H238883   1.074   2.634   1.725
 5144TIP3   OH238884   1.214   2.539   0.851
 5144TIP3    H138885   1.214   2.625   0.806
 5144TIP3    H238886   1.207   2.478   0.776
 5145TIP3   OH238887   0.335   2.504   1.326
 5145TIP3    H138888   0.372   2.536   1.409
 5145TIP3    H238889   0.292   2.421   1.354
 5146TIP3   OH238890   0.735   2.319   0.104
 5146TIP3    H138891   0.672   2.257   0.148
 5146TIP3    H238892   0.680   2.366   0.040
 5147TIP3   OH238893   0.063   2.287   0.756
 5147TIP3    H138894   0.113   2.243   0.826
 5147TIP3    H238895   0.076   2.228   0.679
 5148TIP3   OH238896   0.206   2.360   0.314
 5148TIP3    H138897   0.234   2.382   0.224
 5148TIP3    H238898   0.128   2.413   0.331
 5149TIP3   OH238899   1.126   2.672   1.273
 5149TIP3    H138900   1.188   2.611   1.226
 5149TIP3    H238901   1.078   2.609   1.332
 5150TIP3   OH238902   0.839   2.297   0.763
 5150TIP3    H138903   0.747   2.300   0.793
 5150TIP3    H238904   0.887   2.257   0.837
 5151TIP3   OH238905   0.315   2.436   0.643
 5151TIP3    H138906   0.245   2.474   0.586
 5151TIP3    H238907   0.312   2.340   0.621
 5152TIP3   OH238908   0.719   2.553   0.381
 5152TIP3    H138909   0.756   2.464   0.381
 5152TIP3    H238910   0.644   2.546   0.316
 5153TIP3   OH238911   1.291   2.185   1.087
 5153TIP3    H138912   1.218   2.190   1.152
 5153TIP3    H238913   1.248   2.155   1.006
 5154TIP3   OH238914   0.553   2.587   0.173
 5154TIP3    H138915   0.465   2.557   0.141
 5154TIP3    H238916   0.604   2.586   0.090
 5155TIP3   OH238917   1.563   3.787   1.741
 5155TIP3    H138918   1.601   3.851   1.678
 5155TIP3    H238919   1.631   3.792   1.811
 5156TIP3   OH238920   0.380   3.029   1.630
 5156TIP3    H138921   0.436   3.048   1.707
 5156TIP3    H238922   0.295   3.010   1.675
 5157TIP3   OH238923   0.898   2.583   0.929
 5157TIP3    H138924   0.991   2.556   0.916
 5157TIP3    H238925   0.866   2.506   0.978
 5158TIP3   OH238926   0.422   2.158   0.594
 5158TIP3    H138927   0.371   2.103   0.658
 5158TIP3    H238928   0.438   2.090   0.526
 5159TIP3   OH238929   0.819   2.374   1.187
 5159TIP3    H138930   0.744   2.437   1.189
 5159TIP3    H238931   0.885   2.419   1.242
 5160TIP3   OH238932   0.874   2.990   0.406
 5160TIP3    H138933   0.811   3.006   0.334
 5160TIP3    H238934   0.835   3.038   0.483
 5161TIP3   OH238935   1.613   2.976   1.239
 5161TIP3    H138936   1.660   3.038   1.178
 5161TIP3    H238937   1.536   2.952   1.184
 5162TIP3   OH238938   1.283   2.313   0.160
 5162TIP3    H138939   1.207   2.360   0.122
 5162TIP3    H238940   1.303   2.375   0.233
 5163TIP3   OH238941   1.015   3.055   1.511
 5163TIP3    H138942   1.027   3.035   1.604
 5163TIP3    H238943   0.997   3.150   1.513
 5164TIP3   OH238944   1.322   2.497   0.355
 5164TIP3    H138945   1.383   2.483   0.431
 5164TIP3    H238946   1.372   2.566   0.308
 5165TIP3   OH238947   0.421   2.964   0.951
 5165TIP3    H138948   0.367   2.930   0.878
 5165TIP3    H238949   0.428   2.882   1.003
 5166TIP3   OH238950   1.093   3.132   0.296
 5166TIP3    H138951   1.056   3.221   0.312
 5166TIP3    H238952   1.021   3.073   0.323
 5167TIP3   OH238953   0.146   2.757   1.438
 5167TIP3    H138954   0.144   2.751   1.535
 5167TIP3    H238955   0.050   2.745   1.422
 5168TIP3   OH238956   0.776   2.761   1.645
 5168TIP3    H138957   0.733   2.694   1.589
 5168TIP3    H238958   0.866   2.722   1.654
 5169TIP3   OH238959   1.280   3.281   1.523
 5169TIP3    H138960   1.198   3.291   1.474
 5169TIP3    H238961   1.255   3.320   1.609
 5170TIP3   OH238962   1.810   2.501   0.349
 5170TIP3    H138963   1.747   2.495   0.276
 5170TIP3    H238964   1.834   2.596   0.342
 5171TIP3   OH238965   1.848   3.094   1.617
 5171TIP3    H138966   1.761   3.116   1.577
 5171TIP3    H238967   1.900   3.075   1.536
 5172TIP3   OH238968   1.637   3.378   0.360
 5172TIP3    H138969   1.587   3.301   0.393
 5172TIP3    H238970   1.644   3.359   0.265
 5173TIP3   OH238971   1.372   2.882   1.059
 5173TIP3    H138972   1.277   2.863   1.041
 5173TIP3    H238973   1.413   2.802   1.024
 5174TIP3   OH238974   0.607   3.313   0.708
 5174TIP3    H138975   0.683   3.325   0.768
 5174TIP3    H238976   0.618   3.398   0.659
 5175TIP3   OH238977   0.181   2.768   0.146
 5175TIP3    H138978   0.261   2.808   0.183
 5175TIP3    H238979   0.110   2.824   0.180
 5176TIP3   OH238980   0.756   3.082   0.631
 5176TIP3    H138981   0.711   3.164   0.656
 5176TIP3    H238982   0.708   3.013   0.681
 5177TIP3   OH238983   0.814   3.465   1.323
 5177TIP3    H138984   0.873   3.537   1.292
 5177TIP3    H238985   0.872   3.422   1.390
 5178TIP3   OH238986   0.665   3.552   0.596
 5178TIP3    H138987   0.566   3.559   0.603
 5178TIP3    H238988   0.683   3.645   0.625
 5179TIP3   OH238989   1.128   3.091   1.252
 5179TIP3    H138990   1.102   3.060   1.342
 5179TIP3    H238991   1.187   3.020   1.224
 5180TIP3   OH238992   1.381   3.227   0.191
 5180TIP3    H138993   1.404   3.158   0.258
 5180TIP3    H238994   1.285   3.211   0.187
 5181TIP3   OH238995   1.448   3.518   1.470
 5181TIP3    H138996   1.356   3.484   1.472
 5181TIP3    H238997   1.445   3.583   1.397
 5182TIP3   OH238998   1.839   3.637   0.189
 5182TIP3    H138999   1.854   3.690   0.109
 5182TIP3    H239000   1.765   3.689   0.229
 5183TIP3   OH239001   0.229   2.273   1.423
 5183TIP3    H139002   0.168   2.326   1.478
 5183TIP3    H239003   0.227   2.189   1.469
 5184TIP3   OH239004   1.463   3.052   0.401
 5184TIP3    H139005   1.453   2.960   0.434
 5184TIP3    H239006   1.561   3.058   0.396
 5185TIP3   OH239007   0.229   3.450   1.266
 5185TIP3    H139008   0.142   3.451   1.310
 5185TIP3    H239009   0.282   3.497   1.333
 5186TIP3   OH239010   0.730   3.249   0.229
 5186TIP3    H139011   0.668   3.201   0.284
 5186TIP3    H239012   0.701   3.342   0.242
 5187TIP3   OH239013   0.318   2.955   0.322
 5187TIP3    H139014   0.256   3.009   0.375
 5187TIP3    H239015   0.355   3.025   0.265
 5188TIP3   OH239016   1.155   2.231   1.332
 5188TIP3    H139017   1.228   2.260   1.389
 5188TIP3    H239018   1.115   2.159   1.383
 5189TIP3   OH239019   1.211   2.208   0.457
 5189TIP3    H139020   1.196   2.302   0.436
 5189TIP3    H239021   1.257   2.217   0.544
 5190TIP3   OH239022   0.965   3.380   0.323
 5190TIP3    H139023   0.899   3.330   0.271
 5190TIP3    H239024   1.026   3.410   0.252
 5191TIP3   OH239025   0.919   2.377   0.494
 5191TIP3    H139026   0.977   2.455   0.507
 5191TIP3    H239027   0.878   2.365   0.582
 5192TIP3   OH239028   1.012   2.493   1.437
 5192TIP3    H139029   0.980   2.544   1.514
 5192TIP3    H239030   1.044   2.411   1.478
 5193TIP3   OH239031   0.993   2.075   0.577
 5193TIP3    H139032   0.960   2.133   0.648
 5193TIP3    H239033   1.063   2.133   0.538
 5194TIP3   OH239034   0.682   3.504   0.305
 5194TIP3    H139035   0.720   3.574   0.247
 5194TIP3    H239036   0.617   3.560   0.351
 5195TIP3   OH239037   0.571   2.173   0.275
 5195TIP3    H139038   0.516   2.238   0.322
 5195TIP3    H239039   0.642   2.156   0.340
 5196TIP3   OH239040   1.580   2.279   1.549
 5196TIP3    H139041   1.484   2.281   1.525
 5196TIP3    H239042   1.621   2.294   1.462
 5197TIP3   OH239043   1.467   2.639   0.920
 5197TIP3    H139044   1.393   2.576   0.929
 5197TIP3    H239045   1.541   2.592   0.966
 5198TIP3   OH239046   0.410   3.201   0.181
 5198TIP3    H139047   0.437   3.290   0.206
 5198TIP3    H239048   0.482   3.167   0.122
 5199TIP3   OH239049   0.309   2.514   0.102
 5199TIP3    H139050   0.248   2.590   0.109
 5199TIP3    H239051   0.268   2.457   0.033
 5200TIP3   OH239052   1.554   3.563   1.069
 5200TIP3    H139053   1.556   3.630   0.997
 5200TIP3    H239054   1.650   3.557   1.086
 5201TIP3   OH239055   0.312   2.004   0.975
 5201TIP3    H139056   0.312   1.971   0.882
 5201TIP3    H239057   0.288   1.919   1.022
 5202TIP3   OH239058   0.185   3.413   0.589
 5202TIP3    H139059   0.092   3.431   0.607
 5202TIP3    H239060   0.191   3.455   0.499
 5203TIP3   OH239061   0.228   3.608   1.659
 5203TIP3    H139062   0.257   3.610   1.751
 5203TIP3    H239063   0.132   3.629   1.669
 5204TIP3   OH239064   0.600   3.540   1.814
 5204TIP3    H139065   0.680   3.493   1.840
 5204TIP3    H239066   0.572   3.492   1.733
 5205TIP3   OH239067   1.089   3.468   0.114
 5205TIP3    H139068   1.015   3.431   0.060
 5205TIP3    H239069   1.137   3.513   0.042
 5206TIP3   OH239070   1.226   3.411   1.751
 5206TIP3    H139071   1.194   3.323   1.784
 5206TIP3    H239072   1.315   3.412   1.793
 5207TIP3   OH239073   1.489   3.465   0.033
 5207TIP3    H139074   1.470   3.396   0.100
 5207TIP3    H239075   1.585   3.455   0.025
 5208TIP3   OH239076   0.181   3.033   1.822
 5208TIP3    H139077   0.187   2.941   1.853
 5208TIP3    H239078   0.090   3.030   1.786
 5209TIP3   OH239079   0.573   3.047   0.024
 5209TIP3    H139080   0.631   3.003   0.086
 5209TIP3    H239081   0.597   2.999  -0.059
 5210TIP3   OH239082   0.789   3.020   1.747
 5210TIP3    H139083   0.764   3.071   1.667
 5210TIP3    H239084   0.785   2.926   1.717
 5211TIP3   OH239085   1.363   3.018   1.501
 5211TIP3    H139086   1.457   3.044   1.503
 5211TIP3    H239087   1.323   3.106   1.519
 5212TIP3   OH239088   0.208   2.737   1.752
 5212TIP3    H139089   0.259   2.657   1.774
 5212TIP3    H239090   0.207   2.777   1.840
 5213TIP3   OH239091   0.685   2.870   0.244
 5213TIP3    H139092   0.590   2.851   0.246
 5213TIP3    H239093   0.715   2.800   0.181
 5214TIP3   OH239094   0.592   2.632   1.461
 5214TIP3    H139095   0.531   2.708   1.464
 5214TIP3    H239096   0.655   2.665   1.393
 5215TIP3   OH239097   0.780   2.690   0.056
 5215TIP3    H139098   0.813   2.692  -0.035
 5215TIP3    H239099   0.864   2.674   0.105
 5216TIP3   OH239100   1.145   2.923   1.828
 5216TIP3    H139101   1.227   2.914   1.881
 5216TIP3    H239102   1.088   2.862   1.877
 5217TIP3   OH239103   1.679   2.933   8.492
 5217TIP3    H139104   1.641   2.956   8.405
 5217TIP3    H239105   1.702   3.020   8.527
 5218TIP3   OH239106   0.670   2.400   1.571
 5218TIP3    H139107   0.667   2.331   1.502
 5218TIP3    H239108   0.648   2.481   1.519
 5219TIP3   OH239109   0.687   2.218   1.355
 5219TIP3    H139110   0.746   2.261   1.289
 5219TIP3    H239111   0.602   2.232   1.308
 5220TIP3   OH239112   0.822   2.744   1.339
 5220TIP3    H139113   0.912   2.770   1.365
 5220TIP3    H239114   0.780   2.828   1.310
 5221TIP3   OH239115   1.278   2.524   1.845
 5221TIP3    H139116   1.312   2.456   1.906
 5221TIP3    H239117   1.323   2.604   1.879
 5222TIP3   OH239118   1.426   2.842   1.697
 5222TIP3    H139119   1.387   2.903   1.632
 5222TIP3    H239120   1.521   2.846   1.673
 5223TIP3   OH239121   0.455   2.516   1.780
 5223TIP3    H139122   0.387   2.447   1.798
 5223TIP3    H239123   0.495   2.483   1.698
 5224TIP3   OH239124   0.758   1.955   1.359
 5224TIP3    H139125   0.731   2.049   1.362
 5224TIP3    H239126   0.678   1.914   1.323
 5225TIP3   OH239127   0.877   2.371   1.766
 5225TIP3    H139128   0.822   2.348   1.844
 5225TIP3    H239129   0.810   2.367   1.694
 5226TIP3   OH239130   1.149   2.277   1.674
 5226TIP3    H139131   1.060   2.296   1.708
 5226TIP3    H239132   1.193   2.236   1.751
 5227TIP3   OH239133   1.305   2.164   1.862
 5227TIP3    H139134   1.304   2.067   1.867
 5227TIP3    H239135   1.294   2.195   1.955
 5228TIP3   OH239136   0.290   2.299   1.798
 5228TIP3    H139137   0.320   2.223   1.746
 5228TIP3    H239138   0.284   2.262   1.889
 5229TIP3   OH239139   0.750   1.903   1.628
 5229TIP3    H139140   0.814   1.832   1.647
 5229TIP3    H239141   0.754   1.907   1.530
 5230TIP3   OH239142   0.800   2.040   1.866
 5230TIP3    H139143   0.776   1.980   1.792
 5230TIP3    H239144   0.731   2.107   1.859
 5231TIP3   OH239145   0.769   3.746   0.226
 5231TIP3    H139146   0.866   3.761   0.220
 5231TIP3    H239147   0.736   3.826   0.185
 5232TIP3   OH239148   0.177   3.197   0.058
 5232TIP3    H139149   0.267   3.189   0.096
 5232TIP3    H239150   0.195   3.208  -0.037
 5233TIP3   OH239151   0.063   3.718   0.621
 5233TIP3    H139152  -0.020   3.770   0.614
 5233TIP3    H239153   0.026   3.629   0.618
 5234TIP3   OH239154   0.113   3.541   0.840
 5234TIP3    H139155   0.083   3.448   0.832
 5234TIP3    H239156   0.030   3.580   0.874
 5235TIP3   OH239157   1.836   3.612   1.094
 5235TIP3    H139158   1.862   3.619   1.187
 5235TIP3    H239159   1.856   3.701   1.063
 5236TIP3   OH239160   1.802   3.545   1.387
 5236TIP3    H139161   1.755   3.475   1.336
 5236TIP3    H239162   1.831   3.491   1.463
 5237TIP3   OH239163   1.689   3.191   1.908
 5237TIP3    H139164   1.593   3.183   1.915
 5237TIP3    H239165   1.707   3.235   1.994
 5238TIP3   OH239166   1.742   3.011   0.383
 5238TIP3    H139167   1.827   3.058   0.403
 5238TIP3    H239168   1.741   2.946   0.456
 5239TIP3   OH239169   1.793   2.808   0.581
 5239TIP3    H139170   1.717   2.764   0.627
 5239TIP3    H239171   1.854   2.828   0.654
 5240TIP3   OH239172   1.780   3.084   1.072
 5240TIP3    H139173   1.840   3.010   1.048
 5240TIP3    H239174   1.831   3.161   1.040
 5241TIP3   OH239175   1.628   3.362   1.307
 5241TIP3    H139176   1.564   3.412   1.361
 5241TIP3    H239177   1.577   3.341   1.226
 5242TIP3   OH239178   1.804   2.802   0.207
 5242TIP3    H139179   1.742   2.826   0.136
 5242TIP3    H239180   1.789   2.873   0.273
 5243TIP3   OH239181   1.593   2.505   0.106
 5243TIP3    H139182   1.664   2.559   0.066
 5243TIP3    H239183   1.619   2.414   0.078
 5244TIP3   OH239184   1.593   2.667   0.684
 5244TIP3    H139185   1.562   2.580   0.654
 5244TIP3    H239186   1.565   2.667   0.779
 5245TIP3   OH239187   0.131   2.970   1.017
 5245TIP3    H139188   0.150   2.898   0.955
 5245TIP3    H239189   0.191   2.942   1.089
 5246TIP3   OH239190   1.706   2.861   1.627
 5246TIP3    H139191   1.761   2.785   1.655
 5246TIP3    H239192   1.766   2.936   1.639
 5247TIP3   OH239193   1.819   2.620   1.656
 5247TIP3    H139194   1.722   2.601   1.657
 5247TIP3    H239195   1.854   2.527   1.658
 5248TIP3   OH239196   1.588   2.255  -0.008
 5248TIP3    H139197   1.643   2.206   0.059
 5248TIP3    H239198   1.497   2.247   0.025
 5249TIP3   OH239199   1.525   2.440   0.526
 5249TIP3    H139200   1.556   2.352   0.555
 5249TIP3    H239201   1.593   2.460   0.460
 5250TIP3   OH239202   1.649   2.491   1.044
 5250TIP3    H139203   1.746   2.503   1.056
 5250TIP3    H239204   1.623   2.497   1.138
 5251TIP3   OH239205   1.629   2.555   1.308
 5251TIP3    H139206   1.553   2.578   1.366
 5251TIP3    H239207   1.675   2.642   1.298
 5252TIP3   OH239208   0.078   2.358   1.648
 5252TIP3    H139209   0.160   2.379   1.700
 5252TIP3    H239210   0.061   2.270   1.683
 5253TIP3   OH239211   1.866   1.951   1.856
 5253TIP3    H139212   1.889   1.901   1.776
 5253TIP3    H239213   1.855   2.041   1.824
 5254TIP3   OH239214   1.557   2.134   0.557
 5254TIP3    H139215   1.620   2.111   0.629
 5254TIP3    H239216   1.588   2.078   0.485
 5255TIP3   OH239217   0.151   2.215   1.006
 5255TIP3    H139218   0.211   2.139   1.021
 5255TIP3    H239219   0.204   2.290   1.035
 5256TIP3   OH239220   0.047   2.536   1.066
 5256TIP3    H139221   0.110   2.525   0.992
 5256TIP3    H239222   0.065   2.626   1.094
 5257TIP3   OH239223   1.741   2.163   1.726
 5257TIP3    H139224   1.680   2.219   1.671
 5257TIP3    H239225   1.772   2.104   1.654
 5258TIP3   OH239226   1.779   2.162   0.158
 5258TIP3    H139227   1.820   2.106   0.091
 5258TIP3    H239228   1.851   2.225   0.179
 5259TIP3   OH239229   0.062   2.131   0.487
 5259TIP3    H139230  -0.032   2.123   0.507
 5259TIP3    H239231   0.065   2.103   0.394
 5260TIP3   OH239232   1.495   3.662   0.687
 5260TIP3    H139233   1.572   3.642   0.630
 5260TIP3    H239234   1.536   3.710   0.761
 5261TIP3   OH239235   0.034   1.988   1.314
 5261TIP3    H139236  -0.064   1.982   1.325
 5261TIP3    H239237   0.037   2.049   1.239
 5262TIP3   OH239238   0.273   3.332   1.740
 5262TIP3    H139239   0.221   3.405   1.702
 5262TIP3    H239240   0.208   3.284   1.793
 5263TIP3   OH239241   0.552   3.507   1.368
 5263TIP3    H139242   0.545   3.593   1.322
 5263TIP3    H239243   0.649   3.493   1.360
 5264TIP3   OH239244   0.963   3.590   1.627
 5264TIP3    H139245   0.977   3.580   1.724
 5264TIP3    H239246   1.051   3.624   1.600
 5265TIP3   OH239247   1.189   3.742   1.580
 5265TIP3    H139248   1.268   3.734   1.525
 5265TIP3    H239249   1.221   3.788   1.660
 5266TIP3   OH239250   1.685   1.969   1.489
 5266TIP3    H139251   1.613   2.027   1.461
 5266TIP3    H239252   1.659   1.887   1.443
 5267TIP3   OH239253   0.298   3.771   1.355
 5267TIP3    H139254   0.220   3.822   1.328
 5267TIP3    H239255   0.295   3.784   1.452
 5268TIP3   OH239256   0.535   3.730   1.221
 5268TIP3    H139257   0.443   3.738   1.256
 5268TIP3    H239258   0.546   3.818   1.177
 5269TIP3   OH239259   0.977   3.673   1.185
 5269TIP3    H139260   0.955   3.731   1.111
 5269TIP3    H239261   0.985   3.740   1.256
 5270TIP3   OH239262   1.204   3.566   1.311
 5270TIP3    H139263   1.134   3.605   1.255
 5270TIP3    H239264   1.278   3.625   1.291
 5271TIP3   OH239265   1.468   3.702   1.278
 5271TIP3    H139266   1.487   3.789   1.239
 5271TIP3    H239267   1.500   3.647   1.204
 5272TIP3   OH239268   0.272   3.658   1.065
 5272TIP3    H139269   0.223   3.610   1.134
 5272TIP3    H239270   0.333   3.588   1.033
 5273TIP3   OH239271   0.432   3.501   0.915
 5273TIP3    H139272   0.429   3.405   0.931
 5273TIP3    H239273   0.524   3.518   0.945
 5274TIP3   OH239274   0.696   3.500   0.999
 5274TIP3    H139275   0.748   3.425   1.035
 5274TIP3    H239276   0.707   3.567   1.068
 5275TIP3   OH239277   1.021   2.059   0.883
 5275TIP3    H139278   0.931   2.048   0.920
 5275TIP3    H239279   1.041   1.967   0.862
 5276TIP3   OH239280   1.571   1.927   0.904
 5276TIP3    H139281   1.645   1.970   0.856
 5276TIP3    H239282   1.496   1.975   0.863
 5277TIP3   OH239283   1.739   2.025   0.721
 5277TIP3    H139284   1.799   1.970   0.667
 5277TIP3    H239285   1.801   2.095   0.753
 5278TIP3   OH239286   0.315   1.937   0.701
 5278TIP3    H139287   0.221   1.936   0.675
 5278TIP3    H239288   0.350   1.915   0.610
 5279TIP3   OH239289   0.051   1.981   0.240
 5279TIP3    H139290   0.115   2.011   0.172
 5279TIP3    H239291   0.112   1.941   0.305
 5280TIP3   OH239292   0.716   1.975   0.676
 5280TIP3    H139293   0.803   1.969   0.636
 5280TIP3    H239294   0.732   1.980   0.771
 5281TIP3   OH239295   1.322   1.951   0.799
 5281TIP3    H139296   1.256   2.011   0.763
 5281TIP3    H239297   1.268   1.875   0.825
 5282TIP3   OH239298   1.358   1.996   0.347
 5282TIP3    H139299   1.366   2.035   0.436
 5282TIP3    H239300   1.346   1.900   0.367
 5283TIP3   OH239301   0.218   3.550   0.357
 5283TIP3    H139302   0.119   3.553   0.352
 5283TIP3    H239303   0.237   3.645   0.343
 5284TIP3   OH239304   0.274   2.087   0.122
 5284TIP3    H139305   0.350   2.034   0.096
 5284TIP3    H239306   0.294   2.098   0.217
 5285TIP3   OH239307   0.840   2.173   0.355
 5285TIP3    H139308   0.871   2.120   0.429
 5285TIP3    H239309   0.870   2.261   0.388
 5286TIP3   OH239310   1.050   3.728   0.189
 5286TIP3    H139311   1.141   3.743   0.155
 5286TIP3    H239312   1.045   3.634   0.163
 5287TIP3   OH239313   1.673   3.595   0.506
 5287TIP3    H139314   1.665   3.516   0.446
 5287TIP3    H239315   1.669   3.665   0.438
 5288TIP3   OH239316   0.233   2.025   1.659
 5288TIP3    H139317   0.181   1.943   1.657
 5288TIP3    H239318   0.318   1.993   1.696
 5289TIP3   OH239319   0.467   1.935   1.846
 5289TIP3    H139320   0.547   1.896   1.806
 5289TIP3    H239321   0.424   1.855   1.883
 5290TIP3   OH239322   0.383   3.658   0.096
 5290TIP3    H139323   0.316   3.677   0.164
 5290TIP3    H239324   0.390   3.563   0.103
 5291TIP3   OH239325   1.309   1.890   1.847
 5291TIP3    H139326   1.323   1.874   1.941
 5291TIP3    H239327   1.394   1.857   1.811
 5292TIP3   OH239328   1.635   3.529   1.662
 5292TIP3    H139329   1.577   3.520   1.584
 5292TIP3    H239330   1.624   3.623   1.684
 5293TIP3   OH239331   3.097   2.904   0.670
 5293TIP3    H139332   3.075   2.999   0.680
 5293TIP3    H239333   3.022   2.872   0.617
 5294TIP3   OH239334   2.974   2.768   1.021
 5294TIP3    H139335   2.977   2.742   1.116
 5294TIP3    H239336   2.901   2.715   0.986
 5295TIP3   OH239337   2.175   2.770   1.196
 5295TIP3    H139338   2.188   2.688   1.248
 5295TIP3    H239339   2.266   2.794   1.174
 5296TIP3   OH239340   3.292   3.078   0.869
 5296TIP3    H139341   3.273   3.008   0.933
 5296TIP3    H239342   3.316   3.151   0.927
 5297TIP3   OH239343   2.299   3.220   1.036
 5297TIP3    H139344   2.258   3.140   0.999
 5297TIP3    H239345   2.392   3.205   1.013
 5298TIP3   OH239346   1.976   2.555   0.567
 5298TIP3    H139347   1.941   2.640   0.597
 5298TIP3    H239348   1.904   2.520   0.512
 5299TIP3   OH239349   2.013   2.805   0.824
 5299TIP3    H139350   2.051   2.715   0.835
 5299TIP3    H239351   2.090   2.861   0.803
 5300TIP3   OH239352   3.061   3.632   0.851
 5300TIP3    H139353   3.138   3.577   0.820
 5300TIP3    H239354   3.022   3.569   0.914
 5301TIP3   OH239355   2.776   3.046   1.117
 5301TIP3    H139356   2.809   3.018   1.030
 5301TIP3    H239357   2.860   3.071   1.160
 5302TIP3   OH239358   3.651   2.228   1.091
 5302TIP3    H139359   3.670   2.282   1.169
 5302TIP3    H239360   3.737   2.229   1.047
 5303TIP3   OH239361   3.156   2.510   1.119
 5303TIP3    H139362   3.169   2.417   1.144
 5303TIP3    H239363   3.116   2.499   1.031
 5304TIP3   OH239364   2.444   2.274   0.802
 5304TIP3    H139365   2.452   2.361   0.757
 5304TIP3    H239366   2.387   2.228   0.737
 5305TIP3   OH239367   3.174   2.317   0.686
 5305TIP3    H139368   3.232   2.274   0.753
 5305TIP3    H239369   3.238   2.375   0.640
 5306TIP3   OH239370   2.084   2.546   0.886
 5306TIP3    H139371   2.135   2.491   0.946
 5306TIP3    H239372   2.114   2.511   0.800
 5307TIP3   OH239373   2.562   2.704   0.850
 5307TIP3    H139374   2.648   2.664   0.874
 5307TIP3    H239375   2.532   2.636   0.785
 5308TIP3   OH239376   3.667   2.332   1.379
 5308TIP3    H139377   3.635   2.416   1.339
 5308TIP3    H239378   3.692   2.363   1.468
 5309TIP3   OH239379   2.347   2.198   1.227
 5309TIP3    H139380   2.305   2.240   1.149
 5309TIP3    H239381   2.281   2.215   1.297
 5310TIP3   OH239382   3.010   3.139   0.572
 5310TIP3    H139383   2.988   3.139   0.477
 5310TIP3    H239384   2.994   3.233   0.598
 5311TIP3   OH239385   2.535   2.972   1.217
 5311TIP3    H139386   2.483   3.046   1.256
 5311TIP3    H239387   2.612   3.019   1.178
 5312TIP3   OH239388   3.402   2.247   0.870
 5312TIP3    H139389   3.334   2.239   0.940
 5312TIP3    H239390   3.469   2.299   0.917
 5313TIP3   OH239391   2.291   2.381   1.020
 5313TIP3    H139392   2.346   2.451   1.062
 5313TIP3    H239393   2.349   2.354   0.944
 5314TIP3   OH239394   2.425   3.183   1.337
 5314TIP3    H139395   2.414   3.267   1.291
 5314TIP3    H239396   2.332   3.170   1.368
 5315TIP3   OH239397   1.996   3.122   0.407
 5315TIP3    H139398   2.000   3.169   0.321
 5315TIP3    H239399   2.012   3.194   0.472
 5316TIP3   OH239400   3.373   3.294   1.086
 5316TIP3    H139401   3.277   3.312   1.106
 5316TIP3    H239402   3.390   3.371   1.028
 5317TIP3   OH239403   3.393   2.137   1.193
 5317TIP3    H139404   3.337   2.148   1.114
 5317TIP3    H239405   3.481   2.163   1.159
 5318TIP3   OH239406   2.677   1.926   0.968
 5318TIP3    H139407   2.660   1.832   0.956
 5318TIP3    H239408   2.586   1.957   0.993
 5319TIP3   OH239409   3.233   3.462   0.744
 5319TIP3    H139410   3.252   3.384   0.687
 5319TIP3    H239411   3.301   3.526   0.713
 5320TIP3   OH239412   3.314   3.251   0.586
 5320TIP3    H139413   3.297   3.186   0.516
 5320TIP3    H239414   3.298   3.197   0.665
 5321TIP3   OH239415   3.476   3.132   1.464
 5321TIP3    H139416   3.473   3.055   1.403
 5321TIP3    H239417   3.489   3.204   1.399
 5322TIP3   OH239418   2.934   2.805   0.423
 5322TIP3    H139419   2.869   2.877   0.403
 5322TIP3    H239420   3.015   2.840   0.381
 5323TIP3   OH239421   2.922   2.718   0.145
 5323TIP3    H139422   2.982   2.741   0.219
 5323TIP3    H239423   2.972   2.650   0.100
 5324TIP3   OH239424   3.672   2.778   1.253
 5324TIP3    H139425   3.602   2.845   1.236
 5324TIP3    H239426   3.744   2.807   1.193
 5325TIP3   OH239427   3.315   2.831   0.529
 5325TIP3    H139428   3.238   2.855   0.588
 5325TIP3    H239429   3.375   2.793   0.596
 5326TIP3   OH239430   3.299   2.645   1.442
 5326TIP3    H139431   3.297   2.730   1.489
 5326TIP3    H239432   3.241   2.666   1.366
 5327TIP3   OH239433   2.437   2.893   0.700
 5327TIP3    H139434   2.428   2.848   0.613
 5327TIP3    H239435   2.489   2.829   0.752
 5328TIP3   OH239436   2.571   3.208   0.975
 5328TIP3    H139437   2.587   3.196   0.880
 5328TIP3    H239438   2.651   3.176   1.018
 5329TIP3   OH239439   2.441   2.773   1.082
 5329TIP3    H139440   2.491   2.759   0.998
 5329TIP3    H239441   2.494   2.843   1.127
 5330TIP3   OH239442   3.120   3.335   1.150
 5330TIP3    H139443   3.070   3.391   1.211
 5330TIP3    H239444   3.099   3.246   1.185
 5331TIP3   OH239445   2.571   3.222   1.571
 5331TIP3    H139446   2.498   3.278   1.604
 5331TIP3    H239447   2.536   3.204   1.480
 5332TIP3   OH239448   3.170   2.784   0.311
 5332TIP3    H139449   3.226   2.807   0.388
 5332TIP3    H239450   3.220   2.822   0.236
 5333TIP3   OH239451   2.280   2.797   1.476
 5333TIP3    H139452   2.279   2.862   1.549
 5333TIP3    H239453   2.190   2.810   1.444
 5334TIP3   OH239454   2.964   3.392   0.664
 5334TIP3    H139455   3.014   3.466   0.700
 5334TIP3    H239456   2.897   3.435   0.610
 5335TIP3   OH239457   2.374   3.391   1.615
 5335TIP3    H139458   2.378   3.424   1.523
 5335TIP3    H239459   2.280   3.368   1.625
 5336TIP3   OH239460   3.559   1.907   0.310
 5336TIP3    H139461   3.466   1.938   0.302
 5336TIP3    H239462   3.604   1.993   0.296
 5337TIP3   OH239463   2.335   2.774   0.440
 5337TIP3    H139464   2.272   2.846   0.418
 5337TIP3    H239465   2.278   2.698   0.458
 5338TIP3   OH239466   3.643   3.354   0.112
 5338TIP3    H139467   3.664   3.449   0.117
 5338TIP3    H239468   3.732   3.317   0.123
 5339TIP3   OH239469   1.954   3.052   1.368
 5339TIP3    H139470   1.887   3.047   1.299
 5339TIP3    H239471   1.998   2.965   1.356
 5340TIP3   OH239472   1.944   3.321   1.022
 5340TIP3    H139473   2.029   3.308   1.066
 5340TIP3    H239474   1.911   3.400   1.066
 5341TIP3   OH239475   3.742   3.389   1.599
 5341TIP3    H139476   3.723   3.294   1.597
 5341TIP3    H239477   3.659   3.426   1.639
 5342TIP3   OH239478   2.841   3.331   1.492
 5342TIP3    H139479   2.851   3.411   1.549
 5342TIP3    H239480   2.752   3.297   1.513
 5343TIP3   OH239481   2.872   3.711   0.454
 5343TIP3    H139482   2.886   3.731   0.359
 5343TIP3    H239483   2.889   3.799   0.495
 5344TIP3   OH239484   2.253   3.595   0.662
 5344TIP3    H139485   2.270   3.553   0.750
 5344TIP3    H239486   2.170   3.551   0.635
 5345TIP3   OH239487   3.208   3.657   0.180
 5345TIP3    H139488   3.252   3.575   0.149
 5345TIP3    H239489   3.205   3.645   0.278
 5346TIP3   OH239490   3.163   3.624   0.449
 5346TIP3    H139491   3.072   3.648   0.475
 5346TIP3    H239492   3.174   3.537   0.490
 5347TIP3   OH239493   3.441   2.521   1.651
 5347TIP3    H139494   3.379   2.564   1.589
 5347TIP3    H239495   3.442   2.428   1.620
 5348TIP3   OH239496   2.182   3.176   1.444
 5348TIP3    H139497   2.182   3.139   1.533
 5348TIP3    H239498   2.098   3.138   1.409
 5349TIP3   OH239499   2.447   2.021   1.055
 5349TIP3    H139500   2.354   2.025   1.023
 5349TIP3    H239501   2.440   2.082   1.132
 5350TIP3   OH239502   2.929   2.018   1.395
 5350TIP3    H139503   2.954   1.960   1.468
 5350TIP3    H239504   2.831   2.008   1.390
 5351TIP3   OH239505   3.219   2.391   1.452
 5351TIP3    H139506   3.155   2.370   1.523
 5351TIP3    H239507   3.228   2.488   1.458
 5352TIP3   OH239508   3.299   2.884   0.103
 5352TIP3    H139509   3.294   2.921   0.013
 5352TIP3    H239510   3.387   2.918   0.126
 5353TIP3   OH239511   2.893   2.287   0.120
 5353TIP3    H139512   2.855   2.284   0.209
 5353TIP3    H239513   2.874   2.197   0.090
 5354TIP3   OH239514   2.453   2.529   1.176
 5354TIP3    H139515   2.382   2.523   1.242
 5354TIP3    H239516   2.446   2.624   1.151
 5355TIP3   OH239517   2.469   2.509   0.674
 5355TIP3    H139518   2.372   2.512   0.655
 5355TIP3    H239519   2.502   2.481   0.586
 5356TIP3   OH239520   3.020   2.581   0.536
 5356TIP3    H139521   2.988   2.667   0.498
 5356TIP3    H239522   3.065   2.545   0.457
 5357TIP3   OH239523   2.894   2.586   1.680
 5357TIP3    H139524   2.901   2.491   1.697
 5357TIP3    H239525   2.976   2.618   1.720
 5358TIP3   OH239526   3.070   2.533   0.848
 5358TIP3    H139527   3.076   2.616   0.798
 5358TIP3    H239528   3.090   2.470   0.777
 5359TIP3   OH239529   2.223   2.517   1.310
 5359TIP3    H139530   2.239   2.537   1.404
 5359TIP3    H239531   2.184   2.427   1.316
 5360TIP3   OH239532   2.535   2.303   0.065
 5360TIP3    H139533   2.512   2.256   0.148
 5360TIP3    H239534   2.513   2.396   0.085
 5361TIP3   OH239535   1.900   2.243   0.753
 5361TIP3    H139536   1.971   2.257   0.818
 5361TIP3    H239537   1.945   2.254   0.668
 5362TIP3   OH239538   1.993   2.313   0.261
 5362TIP3    H139539   2.057   2.348   0.196
 5362TIP3    H239540   1.947   2.396   0.285
 5363TIP3   OH239541   3.016   2.707   1.271
 5363TIP3    H139542   3.071   2.635   1.233
 5363TIP3    H239543   2.957   2.654   1.331
 5364TIP3   OH239544   2.736   2.265   0.766
 5364TIP3    H139545   2.638   2.268   0.777
 5364TIP3    H239546   2.767   2.244   0.856
 5365TIP3   OH239547   2.207   2.444   0.642
 5365TIP3    H139548   2.128   2.479   0.593
 5365TIP3    H239549   2.229   2.361   0.596
 5366TIP3   OH239550   2.513   2.445   0.417
 5366TIP3    H139551   2.609   2.462   0.418
 5366TIP3    H239552   2.484   2.495   0.337
 5367TIP3   OH239553   3.187   2.215   1.040
 5367TIP3    H139554   3.119   2.214   1.110
 5367TIP3    H239555   3.154   2.146   0.978
 5368TIP3   OH239556   2.462   2.537   0.167
 5368TIP3    H139557   2.385   2.528   0.109
 5368TIP3    H239558   2.521   2.598   0.118
 5369TIP3   OH239559   3.465   3.782   1.729
 5369TIP3    H139560   3.497   3.861   1.682
 5369TIP3    H239561   3.540   3.768   1.790
 5370TIP3   OH239562   2.236   3.002   1.666
 5370TIP3    H139563   2.307   3.051   1.711
 5370TIP3    H239564   2.166   2.995   1.730
 5371TIP3   OH239565   2.793   2.550   0.940
 5371TIP3    H139566   2.880   2.528   0.904
 5371TIP3    H239567   2.779   2.480   1.006
 5372TIP3   OH239568   2.276   2.169   0.604
 5372TIP3    H139569   2.222   2.100   0.648
 5372TIP3    H239570   2.320   2.117   0.535
 5373TIP3   OH239571   2.673   2.388   1.225
 5373TIP3    H139572   2.601   2.450   1.202
 5373TIP3    H239573   2.741   2.448   1.260
 5374TIP3   OH239574   2.759   3.009   0.388
 5374TIP3    H139575   2.685   2.956   0.351
 5374TIP3    H239576   2.719   3.039   0.473
 5375TIP3   OH239577   3.490   2.971   1.252
 5375TIP3    H139578   3.539   3.029   1.188
 5375TIP3    H239579   3.408   2.957   1.201
 5376TIP3   OH239580   3.151   2.304   0.175
 5376TIP3    H139581   3.069   2.320   0.126
 5376TIP3    H239582   3.157   2.386   0.229
 5377TIP3   OH239583   2.942   3.077   1.503
 5377TIP3    H139584   2.881   3.018   1.550
 5377TIP3    H239585   2.911   3.166   1.526
 5378TIP3   OH239586   3.203   2.512   0.338
 5378TIP3    H139587   3.255   2.490   0.418
 5378TIP3    H239588   3.234   2.602   0.320
 5379TIP3   OH239589   2.268   2.970   0.916
 5379TIP3    H139590   2.326   2.968   0.837
 5379TIP3    H239591   2.310   2.905   0.975
 5380TIP3   OH239592   2.961   3.152   0.293
 5380TIP3    H139593   2.916   3.238   0.311
 5380TIP3    H239594   2.887   3.090   0.312
 5381TIP3   OH239595   1.972   2.789   1.453
 5381TIP3    H139596   1.942   2.731   1.525
 5381TIP3    H239597   1.909   2.765   1.382
 5382TIP3   OH239598   2.641   2.759   1.695
 5382TIP3    H139599   2.595   2.710   1.624
 5382TIP3    H239600   2.726   2.712   1.697
 5383TIP3   OH239601   3.156   3.292   1.511
 5383TIP3    H139602   3.081   3.311   1.454
 5383TIP3    H239603   3.118   3.324   1.595
 5384TIP3   OH239604   3.697   2.498   0.332
 5384TIP3    H139605   3.630   2.486   0.263
 5384TIP3    H239606   3.710   2.594   0.324
 5385TIP3   OH239607   3.719   3.086   1.568
 5385TIP3    H139608   3.626   3.095   1.535
 5385TIP3    H239609   3.767   3.087   1.482
 5386TIP3   OH239610   3.513   3.379   0.350
 5386TIP3    H139611   3.489   3.291   0.379
 5386TIP3    H239612   3.548   3.367   0.260
 5387TIP3   OH239613   3.259   2.871   1.056
 5387TIP3    H139614   3.166   2.846   1.043
 5387TIP3    H239615   3.302   2.799   1.006
 5388TIP3   OH239616   2.500   3.298   0.681
 5388TIP3    H139617   2.541   3.378   0.645
 5388TIP3    H239618   2.411   3.305   0.644
 5389TIP3   OH239619   2.076   2.812   0.109
 5389TIP3    H139620   2.128   2.860   0.177
 5389TIP3    H239621   1.986   2.812   0.146
 5390TIP3   OH239622   2.648   3.080   0.627
 5390TIP3    H139623   2.592   3.159   0.636
 5390TIP3    H239624   2.607   3.018   0.689
 5391TIP3   OH239625   2.694   3.506   1.306
 5391TIP3    H139626   2.758   3.568   1.267
 5391TIP3    H239627   2.751   3.461   1.372
 5392TIP3   OH239628   2.529   3.553   0.584
 5392TIP3    H139629   2.433   3.551   0.599
 5392TIP3    H239630   2.553   3.637   0.629
 5393TIP3   OH239631   3.011   3.081   1.239
 5393TIP3    H139632   2.991   3.066   1.335
 5393TIP3    H239633   3.062   3.002   1.214
 5394TIP3   OH239634   3.269   3.208   0.179
 5394TIP3    H139635   3.294   3.155   0.257
 5394TIP3    H239636   3.177   3.178   0.171
 5395TIP3   OH239637   3.327   3.522   1.491
 5395TIP3    H139638   3.246   3.469   1.477
 5395TIP3    H239639   3.327   3.584   1.415
 5396TIP3   OH239640   3.714   3.628   0.175
 5396TIP3    H139641   3.773   3.690   0.127
 5396TIP3    H239642   3.653   3.690   0.222
 5397TIP3   OH239643   2.142   2.258   1.420
 5397TIP3    H139644   2.080   2.311   1.473
 5397TIP3    H239645   2.140   2.177   1.474
 5398TIP3   OH239646   3.358   3.050   0.387
 5398TIP3    H139647   3.340   2.962   0.427
 5398TIP3    H239648   3.454   3.056   0.402
 5399TIP3   OH239649   2.100   3.446   1.258
 5399TIP3    H139650   2.170   3.380   1.271
 5399TIP3    H239651   2.125   3.515   1.321
 5400TIP3   OH239652   2.559   3.258   0.251
 5400TIP3    H139653   2.621   3.213   0.310
 5400TIP3    H239654   2.575   3.353   0.273
 5401TIP3   OH239655   2.207   2.978   0.293
 5401TIP3    H139656   2.143   3.030   0.347
 5401TIP3    H239657   2.265   3.047   0.256
 5402TIP3   OH239658   3.024   2.271   1.301
 5402TIP3    H139659   3.112   2.287   1.342
 5402TIP3    H239660   2.995   2.186   1.340
 5403TIP3   OH239661   3.067   2.219   0.452
 5403TIP3    H139662   3.125   2.250   0.381
 5403TIP3    H239663   3.104   2.263   0.532
 5404TIP3   OH239664   2.865   3.395   0.347
 5404TIP3    H139665   2.803   3.468   0.364
 5404TIP3    H239666   2.917   3.430   0.271
 5405TIP3   OH239667   2.789   2.396   0.519
 5405TIP3    H139668   2.859   2.462   0.536
 5405TIP3    H239669   2.770   2.355   0.606
 5406TIP3   OH239670   2.882   2.522   1.417
 5406TIP3    H139671   2.881   2.546   1.512
 5406TIP3    H239672   2.924   2.434   1.411
 5407TIP3   OH239673   2.865   2.071   0.567
 5407TIP3    H139674   2.828   2.131   0.635
 5407TIP3    H239675   2.942   2.123   0.534
 5408TIP3   OH239676   2.586   3.519   0.320
 5408TIP3    H139677   2.606   3.604   0.277
 5408TIP3    H239678   2.557   3.549   0.409
 5409TIP3   OH239679   2.435   2.190   0.301
 5409TIP3    H139680   2.428   2.271   0.356
 5409TIP3    H239681   2.520   2.157   0.335
 5410TIP3   OH239682   3.438   2.268   1.544
 5410TIP3    H139683   3.348   2.290   1.511
 5410TIP3    H239684   3.490   2.284   1.462
 5411TIP3   OH239685   3.335   2.634   0.911
 5411TIP3    H139686   3.263   2.581   0.949
 5411TIP3    H239687   3.413   2.591   0.953
 5412TIP3   OH239688   2.282   3.251   0.164
 5412TIP3    H139689   2.361   3.280   0.212
 5412TIP3    H239690   2.323   3.196   0.095
 5413TIP3   OH239691   2.118   2.520   0.084
 5413TIP3    H139692   2.137   2.613   0.099
 5413TIP3    H239693   2.034   2.524   0.035
 5414TIP3   OH239694   3.430   3.588   1.077
 5414TIP3    H139695   3.439   3.665   1.017
 5414TIP3    H239696   3.524   3.562   1.085
 5415TIP3   OH239697   2.186   1.998   0.979
 5415TIP3    H139698   2.184   1.987   0.881
 5415TIP3    H239699   2.164   1.905   1.004
 5416TIP3   OH239700   2.046   3.364   0.559
 5416TIP3    H139701   1.976   3.415   0.602
 5416TIP3    H239702   2.060   3.421   0.479
 5417TIP3   OH239703   1.984   3.652   1.684
 5417TIP3    H139704   1.998   3.615   1.773
 5417TIP3    H239705   1.945   3.574   1.638
 5418TIP3   OH239706   2.453   3.534   1.843
 5418TIP3    H139707   2.545   3.504   1.855
 5418TIP3    H239708   2.428   3.484   1.763
 5419TIP3   OH239709   2.949   3.497   0.095
 5419TIP3    H139710   2.886   3.439   0.047
 5419TIP3    H239711   3.009   3.522   0.023
 5420TIP3   OH239712   3.077   3.388   1.753
 5420TIP3    H139713   3.058   3.295   1.782
 5420TIP3    H239714   3.166   3.399   1.787
 5421TIP3   OH239715   3.366   3.460   0.025
 5421TIP3    H139716   3.352   3.389   0.091
 5421TIP3    H239717   3.459   3.449   0.005
 5422TIP3   OH239718   2.448   3.035   0.044
 5422TIP3    H139719   2.511   3.031   0.119
 5422TIP3    H239720   2.502   3.001  -0.030
 5423TIP3   OH239721   2.681   3.025   1.738
 5423TIP3    H139722   2.637   3.073   1.666
 5423TIP3    H239723   2.658   2.930   1.723
 5424TIP3   OH239724   3.235   3.013   1.510
 5424TIP3    H139725   3.316   3.069   1.512
 5424TIP3    H239726   3.167   3.083   1.515
 5425TIP3   OH239727   2.568   2.866   0.270
 5425TIP3    H139728   2.493   2.819   0.312
 5425TIP3    H239729   2.594   2.807   0.197
 5426TIP3   OH239730   2.510   2.644   1.469
 5426TIP3    H139731   2.426   2.696   1.469
 5426TIP3    H239732   2.566   2.694   1.406
 5427TIP3   OH239733   2.673   2.682   0.055
 5427TIP3    H139734   2.714   2.650  -0.027
 5427TIP3    H239735   2.756   2.690   0.111
 5428TIP3   OH239736   3.013   2.879   1.846
 5428TIP3    H139737   3.075   2.860   1.772
 5428TIP3    H239738   3.041   2.817   1.915
 5429TIP3   OH239739   3.566   2.957   8.494
 5429TIP3    H139740   3.523   2.976   8.409
 5429TIP3    H239741   3.591   3.046   8.523
 5430TIP3   OH239742   2.508   2.404   1.572
 5430TIP3    H139743   2.539   2.333   1.513
 5430TIP3    H239744   2.526   2.486   1.519
 5431TIP3   OH239745   2.573   2.211   1.384
 5431TIP3    H139746   2.622   2.271   1.322
 5431TIP3    H239747   2.489   2.203   1.335
 5432TIP3   OH239748   2.697   2.801   1.344
 5432TIP3    H139749   2.781   2.844   1.323
 5432TIP3    H239750   2.633   2.871   1.318
 5433TIP3   OH239751   3.182   2.513   1.821
 5433TIP3    H139752   3.249   2.443   1.824
 5433TIP3    H239753   3.230   2.588   1.859
 5434TIP3   OH239754   3.290   2.839   1.712
 5434TIP3    H139755   3.266   2.898   1.638
 5434TIP3    H239756   3.384   2.820   1.692
 5435TIP3   OH239757   2.354   2.529   1.754
 5435TIP3    H139758   2.284   2.467   1.777
 5435TIP3    H239759   2.408   2.480   1.689
 5436TIP3   OH239760   2.659   1.961   1.343
 5436TIP3    H139761   2.624   2.051   1.362
 5436TIP3    H239762   2.576   1.913   1.327
 5437TIP3   OH239763   3.032   2.305   1.661
 5437TIP3    H139764   2.965   2.235   1.666
 5437TIP3    H239765   3.097   2.264   1.722
 5438TIP3   OH239766   3.169   2.159   1.836
 5438TIP3    H139767   3.207   2.069   1.837
 5438TIP3    H239768   3.125   2.165   1.922
 5439TIP3   OH239769   2.141   2.294   1.792
 5439TIP3    H139770   2.195   2.233   1.739
 5439TIP3    H239771   2.168   2.273   1.883
 5440TIP3   OH239772   2.675   1.907   1.632
 5440TIP3    H139773   2.665   1.814   1.658
 5440TIP3    H239774   2.671   1.904   1.535
 5441TIP3   OH239775   2.676   2.040   1.885
 5441TIP3    H139776   2.683   1.966   1.824
 5441TIP3    H239777   2.607   2.092   1.844
 5442TIP3   OH239778   2.656   3.736   0.158
 5442TIP3    H139779   2.740   3.779   0.182
 5442TIP3    H239780   2.664   3.736   0.061
 5443TIP3   OH239781   1.983   3.199   0.139
 5443TIP3    H139782   2.080   3.215   0.138
 5443TIP3    H239783   1.970   3.177   0.045
 5444TIP3   OH239784   1.886   3.705   0.616
 5444TIP3    H139785   1.804   3.657   0.591
 5444TIP3    H239786   1.920   3.650   0.690
 5445TIP3   OH239787   1.977   3.557   0.821
 5445TIP3    H139788   1.920   3.485   0.854
 5445TIP3    H239789   2.034   3.570   0.900
 5446TIP3   OH239790   3.715   3.615   1.084
 5446TIP3    H139791   3.731   3.628   1.179
 5446TIP3    H239792   3.763   3.689   1.045
 5447TIP3   OH239793   3.650   3.600   1.366
 5447TIP3    H139794   3.614   3.515   1.332
 5447TIP3    H239795   3.695   3.567   1.446
 5448TIP3   OH239796   3.643   2.997   0.389
 5448TIP3    H139797   3.726   3.046   0.411
 5448TIP3    H239798   3.640   2.933   0.463
 5449TIP3   OH239799   3.682   2.805   0.584
 5449TIP3    H139800   3.599   2.773   0.627
 5449TIP3    H239801   3.740   2.814   0.663
 5450TIP3   OH239802   3.634   3.092   1.069
 5450TIP3    H139803   3.702   3.032   1.036
 5450TIP3    H239804   3.684   3.177   1.070
 5451TIP3   OH239805   3.521   3.361   1.306
 5451TIP3    H139806   3.453   3.399   1.363
 5451TIP3    H239807   3.469   3.331   1.227
 5452TIP3   OH239808   3.711   2.803   0.196
 5452TIP3    H139809   3.641   2.842   0.141
 5452TIP3    H239810   3.708   2.867   0.270
 5453TIP3   OH239811   3.475   2.506   0.111
 5453TIP3    H139812   3.539   2.540   0.047
 5453TIP3    H239813   3.470   2.412   0.083
 5454TIP3   OH239814   3.468   2.685   0.689
 5454TIP3    H139815   3.426   2.612   0.641
 5454TIP3    H239816   3.435   2.666   0.780
 5455TIP3   OH239817   1.972   2.885   1.076
 5455TIP3    H139818   1.982   2.859   0.982
 5455TIP3    H239819   2.058   2.852   1.112
 5456TIP3   OH239820   3.568   2.849   1.616
 5456TIP3    H139821   3.610   2.772   1.661
 5456TIP3    H239822   3.645   2.893   1.576
 5457TIP3   OH239823   3.673   2.633   1.722
 5457TIP3    H139824   3.583   2.599   1.702
 5457TIP3    H239825   3.724   2.549   1.717
 5458TIP3   OH239826   3.479   2.264  -0.014
 5458TIP3    H139827   3.540   2.215   0.047
 5458TIP3    H239828   3.391   2.242   0.022
 5459TIP3   OH239829   3.388   2.439   0.534
 5459TIP3    H139830   3.418   2.350   0.562
 5459TIP3    H239831   3.450   2.453   0.461
 5460TIP3   OH239832   3.514   2.503   1.049
 5460TIP3    H139833   3.609   2.524   1.064
 5460TIP3    H239834   3.484   2.491   1.140
 5461TIP3   OH239835   3.539   2.557   1.327
 5461TIP3    H139836   3.452   2.585   1.360
 5461TIP3    H239837   3.580   2.642   1.300
 5462TIP3   OH239838   1.907   2.365   1.667
 5462TIP3    H139839   1.987   2.371   1.723
 5462TIP3    H239840   1.857   2.295   1.713
 5463TIP3   OH239841   3.743   1.957   1.849
 5463TIP3    H139842   3.770   1.885   1.790
 5463TIP3    H239843   3.710   2.025   1.786
 5464TIP3   OH239844   3.456   2.172   0.539
 5464TIP3    H139845   3.511   2.136   0.611
 5464TIP3    H239846   3.451   2.099   0.475
 5465TIP3   OH239847   2.058   2.236   1.008
 5465TIP3    H139848   2.089   2.143   1.002
 5465TIP3    H239849   2.141   2.285   1.023
 5466TIP3   OH239850   1.907   2.523   1.088
 5466TIP3    H139851   1.954   2.492   1.008
 5466TIP3    H239852   1.957   2.605   1.105
 5467TIP3   OH239853   3.619   2.127   1.682
 5467TIP3    H139854   3.545   2.185   1.654
 5467TIP3    H239855   3.627   2.075   1.599
 5468TIP3   OH239856   3.658   2.156   0.156
 5468TIP3    H139857   3.711   2.104   0.093
 5468TIP3    H239858   3.727   2.198   0.211
 5469TIP3   OH239859   1.914   2.151   0.467
 5469TIP3    H139860   1.821   2.174   0.473
 5469TIP3    H239861   1.940   2.196   0.383
 5470TIP3   OH239862   3.397   3.651   0.682
 5470TIP3    H139863   3.473   3.621   0.628
 5470TIP3    H239864   3.438   3.704   0.753
 5471TIP3   OH239865   1.907   2.008   1.296
 5471TIP3    H139866   1.839   1.978   1.360
 5471TIP3    H239867   1.866   2.085   1.253
 5472TIP3   OH239868   2.129   3.316   1.744
 5472TIP3    H139869   2.068   3.353   1.677
 5472TIP3    H239870   2.075   3.323   1.824
 5473TIP3   OH239871   2.431   3.475   1.354
 5473TIP3    H139872   2.423   3.570   1.330
 5473TIP3    H239873   2.528   3.467   1.346
 5474TIP3   OH239874   2.855   3.577   1.629
 5474TIP3    H139875   2.841   3.574   1.726
 5474TIP3    H239876   2.948   3.609   1.627
 5475TIP3   OH239877   3.075   3.733   1.603
 5475TIP3    H139878   3.144   3.702   1.542
 5475TIP3    H239879   3.123   3.799   1.657
 5476TIP3   OH239880   3.603   1.969   1.469
 5476TIP3    H139881   3.526   2.005   1.421
 5476TIP3    H239882   3.631   1.895   1.412
 5477TIP3   OH239883   2.160   3.776   1.349
 5477TIP3    H139884   2.086   3.834   1.319
 5477TIP3    H239885   2.152   3.790   1.444
 5478TIP3   OH239886   2.412   3.730   1.263
 5478TIP3    H139887   2.317   3.749   1.283
 5478TIP3    H239888   2.433   3.799   1.198
 5479TIP3   OH239889   2.873   3.685   1.177
 5479TIP3    H139890   2.821   3.742   1.119
 5479TIP3    H239891   2.898   3.749   1.247
 5480TIP3   OH239892   3.084   3.562   1.317
 5480TIP3    H139893   3.017   3.602   1.257
 5480TIP3    H239894   3.162   3.610   1.284
 5481TIP3   OH239895   3.339   3.716   1.290
 5481TIP3    H139896   3.359   3.807   1.263
 5481TIP3    H239897   3.374   3.667   1.212
 5482TIP3   OH239898   2.137   3.613   1.037
 5482TIP3    H139899   2.104   3.549   1.105
 5482TIP3    H239900   2.220   3.567   1.010
 5483TIP3   OH239901   2.344   3.495   0.907
 5483TIP3    H139902   2.345   3.402   0.937
 5483TIP3    H239903   2.426   3.527   0.950
 5484TIP3   OH239904   2.566   3.527   1.046
 5484TIP3    H139905   2.613   3.449   1.013
 5484TIP3    H239906   2.590   3.526   1.141
 5485TIP3   OH239907   2.863   2.107   0.953
 5485TIP3    H139908   2.786   2.048   0.972
 5485TIP3    H239909   2.917   2.051   0.896
 5486TIP3   OH239910   3.464   1.922   0.910
 5486TIP3    H139911   3.515   1.974   0.843
 5486TIP3    H239912   3.374   1.957   0.893
 5487TIP3   OH239913   3.618   2.015   0.700
 5487TIP3    H139914   3.695   1.959   0.674
 5487TIP3    H239915   3.665   2.090   0.745
 5488TIP3   OH239916   2.150   1.949   0.711
 5488TIP3    H139917   2.067   1.931   0.663
 5488TIP3    H239918   2.200   1.866   0.691
 5489TIP3   OH239919   2.029   1.941   0.251
 5489TIP3    H139920   2.094   1.999   0.203
 5489TIP3    H239921   1.998   1.999   0.323
 5490TIP3   OH239922   2.603   1.924   0.693
 5490TIP3    H139923   2.688   1.941   0.649
 5490TIP3    H239924   2.611   1.972   0.776
 5491TIP3   OH239925   3.204   1.976   0.832
 5491TIP3    H139926   3.160   2.009   0.753
 5491TIP3    H239927   3.160   1.889   0.844
 5492TIP3   OH239928   3.313   1.941   0.377
 5492TIP3    H139929   3.239   2.002   0.363
 5492TIP3    H239930   3.277   1.886   0.450
 5493TIP3   OH239931   2.050   3.554   0.367
 5493TIP3    H139932   1.966   3.562   0.317
 5493TIP3    H239933   2.079   3.646   0.353
 5494TIP3   OH239934   2.208   2.083   0.124
 5494TIP3    H139935   2.293   2.046   0.098
 5494TIP3    H239936   2.235   2.168   0.163
 5495TIP3   OH239937   2.704   2.184   0.376
 5495TIP3    H139938   2.750   2.120   0.433
 5495TIP3    H239939   2.742   2.268   0.413
 5496TIP3   OH239940   2.941   3.745   0.198
 5496TIP3    H139941   3.030   3.758   0.160
 5496TIP3    H239942   2.932   3.650   0.174
 5497TIP3   OH239943   3.588   3.584   0.502
 5497TIP3    H139944   3.562   3.510   0.441
 5497TIP3    H239945   3.580   3.661   0.441
 5498TIP3   OH239946   2.125   2.006   1.610
 5498TIP3    H139947   2.076   1.924   1.631
 5498TIP3    H239948   2.194   2.002   1.680
 5499TIP3   OH239949   2.301   1.970   1.815
 5499TIP3    H139950   2.394   1.945   1.811
 5499TIP3    H239951   2.267   1.897   1.869
 5500TIP3   OH239952   2.234   3.645   0.066
 5500TIP3    H139953   2.177   3.675   0.138
 5500TIP3    H239954   2.275   3.566   0.104
 5501TIP3   OH239955   3.518   3.524   1.669
 5501TIP3    H139956   3.459   3.510   1.592
 5501TIP3    H239957   3.485   3.613   1.696
 5502TIP3   OH239958   4.989   2.906   0.666
 5502TIP3    H139959   4.972   3.000   0.688
 5502TIP3    H239960   4.903   2.878   0.630
 5503TIP3   OH239961   4.857   2.777   1.007
 5503TIP3    H139962   4.856   2.739   1.097
 5503TIP3    H239963   4.786   2.729   0.961
 5504TIP3   OH239964   4.082   2.795   1.232
 5504TIP3    H139965   4.090   2.701   1.258
 5504TIP3    H239966   4.177   2.818   1.234
 5505TIP3   OH239967   5.164   3.103   0.890
 5505TIP3    H139968   5.150   3.020   0.940
 5505TIP3    H239969   5.197   3.163   0.958
 5506TIP3   OH239970   4.166   3.227   1.012
 5506TIP3    H139971   4.130   3.142   0.978
 5506TIP3    H239972   4.261   3.215   0.995
 5507TIP3   OH239973   3.845   2.546   0.581
 5507TIP3    H139974   3.808   2.634   0.596
 5507TIP3    H239975   3.803   2.523   0.497
 5508TIP3   OH239976   3.866   2.828   0.796
 5508TIP3    H139977   3.920   2.749   0.818
 5508TIP3    H239978   3.933   2.898   0.795
 5509TIP3   OH239979   4.940   3.639   0.909
 5509TIP3    H139980   4.985   3.588   0.837
 5509TIP3    H239981   4.856   3.593   0.913
 5510TIP3   OH239982   4.664   3.066   1.113
 5510TIP3    H139983   4.692   3.038   1.025
 5510TIP3    H239984   4.751   3.070   1.156
 5511TIP3   OH239985   5.538   2.204   1.113
 5511TIP3    H139986   5.548   2.256   1.195
 5511TIP3    H239987   5.621   2.222   1.067
 5512TIP3   OH239988   5.025   2.500   1.128
 5512TIP3    H139989   5.036   2.404   1.141
 5512TIP3    H239990   5.014   2.502   1.031
 5513TIP3   OH239991   4.369   2.247   0.816
 5513TIP3    H139992   4.359   2.342   0.787
 5513TIP3    H239993   4.304   2.208   0.753
 5514TIP3   OH239994   5.081   2.319   0.681
 5514TIP3    H139995   5.139   2.281   0.750
 5514TIP3    H239996   5.143   2.376   0.632
 5515TIP3   OH239997   3.997   2.629   0.952
 5515TIP3    H139998   4.001   2.568   1.025
 5515TIP3    H239999   4.005   2.564   0.879
 5516TIP3   OH240000   4.438   2.696   0.854
 5516TIP3    H140001   4.531   2.669   0.865
 5516TIP3    H240002   4.405   2.619   0.803
 5517TIP3   OH240003   5.561   2.347   1.372
 5517TIP3    H140004   5.522   2.426   1.329
 5517TIP3    H240005   5.599   2.387   1.453
 5518TIP3   OH240006   4.228   2.187   1.225
 5518TIP3    H140007   4.169   2.236   1.162
 5518TIP3    H240008   4.165   2.178   1.298
 5519TIP3   OH240009   4.888   3.147   0.571
 5519TIP3    H140010   4.874   3.142   0.474
 5519TIP3    H240011   4.892   3.242   0.587
 5520TIP3   OH240012   4.437   2.965   1.214
 5520TIP3    H140013   4.379   3.041   1.240
 5520TIP3    H240014   4.516   3.013   1.179
 5521TIP3   OH240015   5.292   2.302   0.877
 5521TIP3    H140016   5.303   2.215   0.918
 5521TIP3    H240017   5.349   2.359   0.934
 5522TIP3   OH240018   4.223   2.394   1.035
 5522TIP3    H140019   4.224   2.491   1.025
 5522TIP3    H240020   4.175   2.374   0.950
 5523TIP3   OH240021   4.308   3.180   1.306
 5523TIP3    H140022   4.297   3.264   1.260
 5523TIP3    H240023   4.219   3.173   1.349
 5524TIP3   OH240024   3.879   3.119   0.406
 5524TIP3    H140025   3.880   3.161   0.317
 5524TIP3    H240026   3.890   3.194   0.467
 5525TIP3   OH240027   5.267   3.294   1.078
 5525TIP3    H140028   5.175   3.322   1.088
 5525TIP3    H240029   5.302   3.354   1.010
 5526TIP3   OH240030   5.266   2.150   1.219
 5526TIP3    H140031   5.197   2.202   1.173
 5526TIP3    H240032   5.348   2.177   1.176
 5527TIP3   OH240033   4.558   1.901   0.964
 5527TIP3    H140034   4.538   1.806   0.964
 5527TIP3    H240035   4.473   1.938   0.994
 5528TIP3   OH240036   5.119   3.472   0.800
 5528TIP3    H140037   5.095   3.417   0.722
 5528TIP3    H240038   5.187   3.532   0.759
 5529TIP3   OH240039   5.189   3.263   0.590
 5529TIP3    H140040   5.185   3.191   0.525
 5529TIP3    H240041   5.197   3.213   0.673
 5530TIP3   OH240042   5.363   3.126   1.461
 5530TIP3    H140043   5.356   3.045   1.406
 5530TIP3    H240044   5.387   3.191   1.393
 5531TIP3   OH240045   4.814   2.806   0.414
 5531TIP3    H140046   4.749   2.876   0.392
 5531TIP3    H240047   4.897   2.841   0.376
 5532TIP3   OH240048   4.816   2.717   0.139
 5532TIP3    H140049   4.882   2.735   0.210
 5532TIP3    H240050   4.863   2.649   0.089
 5533TIP3   OH240051   5.550   2.767   1.244
 5533TIP3    H140052   5.477   2.834   1.247
 5533TIP3    H240053   5.615   2.811   1.184
 5534TIP3   OH240054   5.190   2.793   0.508
 5534TIP3    H140055   5.124   2.838   0.567
 5534TIP3    H240056   5.254   2.758   0.574
 5535TIP3   OH240057   5.189   2.646   1.444
 5535TIP3    H140058   5.175   2.733   1.488
 5535TIP3    H240059   5.121   2.655   1.375
 5536TIP3   OH240060   4.312   2.888   0.710
 5536TIP3    H140061   4.302   2.846   0.622
 5536TIP3    H240062   4.351   2.815   0.763
 5537TIP3   OH240063   4.460   3.224   0.978
 5537TIP3    H140064   4.480   3.202   0.886
 5537TIP3    H240065   4.530   3.177   1.028
 5538TIP3   OH240066   4.330   2.763   1.098
 5538TIP3    H140067   4.360   2.756   1.005
 5538TIP3    H240068   4.392   2.832   1.133
 5539TIP3   OH240069   5.015   3.341   1.150
 5539TIP3    H140070   4.964   3.381   1.222
 5539TIP3    H240071   5.005   3.246   1.174
 5540TIP3   OH240072   4.459   3.205   1.535
 5540TIP3    H140073   4.389   3.259   1.580
 5540TIP3    H240074   4.417   3.190   1.448
 5541TIP3   OH240075   5.045   2.764   0.290
 5541TIP3    H140076   5.101   2.767   0.371
 5541TIP3    H240077   5.100   2.816   0.227
 5542TIP3   OH240078   4.201   2.789   1.486
 5542TIP3    H140079   4.193   2.886   1.492
 5542TIP3    H240080   4.119   2.767   1.534
 5543TIP3   OH240081   4.863   3.426   0.657
 5543TIP3    H140082   4.800   3.409   0.728
 5543TIP3    H240083   4.806   3.422   0.578
 5544TIP3   OH240084   4.287   3.372   1.641
 5544TIP3    H140085   4.272   3.418   1.556
 5544TIP3    H240086   4.194   3.347   1.663
 5545TIP3   OH240087   5.464   1.910   0.314
 5545TIP3    H140088   5.366   1.914   0.324
 5545TIP3    H240089   5.485   2.000   0.285
 5546TIP3   OH240090   4.215   2.778   0.430
 5546TIP3    H140091   4.155   2.848   0.398
 5546TIP3    H240092   4.157   2.703   0.449
 5547TIP3   OH240093   5.530   3.326   0.133
 5547TIP3    H140094   5.550   3.417   0.106
 5547TIP3    H240095   5.622   3.290   0.129
 5548TIP3   OH240096   3.862   3.061   1.343
 5548TIP3    H140097   3.860   3.039   1.248
 5548TIP3    H240098   3.889   2.972   1.373
 5549TIP3   OH240099   3.821   3.316   1.037
 5549TIP3    H140100   3.914   3.303   1.060
 5549TIP3    H240101   3.800   3.395   1.089
 5550TIP3   OH240102   5.632   3.353   1.614
 5550TIP3    H140103   5.622   3.256   1.607
 5550TIP3    H240104   5.547   3.376   1.656
 5551TIP3   OH240105   4.705   3.335   1.506
 5551TIP3    H140106   4.723   3.408   1.569
 5551TIP3    H240107   4.615   3.305   1.528
 5552TIP3   OH240108   4.764   3.719   0.444
 5552TIP3    H140109   4.771   3.758   0.355
 5552TIP3    H240110   4.783   3.797   0.500
 5553TIP3   OH240111   4.147   3.586   0.669
 5553TIP3    H140112   4.162   3.558   0.762
 5553TIP3    H240113   4.063   3.543   0.647
 5554TIP3   OH240114   5.079   3.649   0.169
 5554TIP3    H140115   5.135   3.573   0.144
 5554TIP3    H240116   5.081   3.641   0.267
 5555TIP3   OH240117   5.052   3.633   0.438
 5555TIP3    H140118   4.958   3.643   0.461
 5555TIP3    H240119   5.076   3.553   0.487
 5556TIP3   OH240120   5.334   2.509   1.642
 5556TIP3    H140121   5.273   2.554   1.580
 5556TIP3    H240122   5.337   2.418   1.606
 5557TIP3   OH240123   4.081   3.191   1.441
 5557TIP3    H140124   4.097   3.153   1.530
 5557TIP3    H240125   3.996   3.148   1.418
 5558TIP3   OH240126   4.356   2.039   1.058
 5558TIP3    H140127   4.283   2.034   0.993
 5558TIP3    H240128   4.306   2.064   1.138
 5559TIP3   OH240129   4.816   1.966   1.387
 5559TIP3    H140130   4.801   1.983   1.481
 5559TIP3    H240131   4.723   1.971   1.355
 5560TIP3   OH240132   5.102   2.389   1.491
 5560TIP3    H140133   5.035   2.383   1.563
 5560TIP3    H240134   5.124   2.485   1.488
 5561TIP3   OH240135   5.186   2.875   0.093
 5561TIP3    H140136   5.164   2.928   0.015
 5561TIP3    H240137   5.282   2.892   0.094
 5562TIP3   OH240138   4.768   2.289   0.119
 5562TIP3    H140139   4.725   2.293   0.206
 5562TIP3    H240140   4.734   2.204   0.086
 5563TIP3   OH240141   4.363   2.533   1.215
 5563TIP3    H140142   4.270   2.520   1.242
 5563TIP3    H240143   4.355   2.623   1.176
 5564TIP3   OH240144   4.340   2.490   0.684
 5564TIP3    H140145   4.246   2.490   0.658
 5564TIP3    H240146   4.381   2.474   0.598
 5565TIP3   OH240147   4.900   2.598   0.550
 5565TIP3    H140148   4.866   2.674   0.497
 5565TIP3    H240149   4.959   2.555   0.484
 5566TIP3   OH240150   4.739   2.631   1.739
 5566TIP3    H140151   4.730   2.537   1.763
 5566TIP3    H240152   4.836   2.639   1.726
 5567TIP3   OH240153   5.003   2.556   0.848
 5567TIP3    H140154   4.991   2.639   0.797
 5567TIP3    H240155   4.999   2.490   0.775
 5568TIP3   OH240156   4.102   2.516   1.317
 5568TIP3    H140157   4.101   2.538   1.412
 5568TIP3    H240158   4.051   2.433   1.312
 5569TIP3   OH240159   4.410   2.307   0.077
 5569TIP3    H140160   4.382   2.249   0.151
 5569TIP3    H240161   4.391   2.396   0.111
 5570TIP3   OH240162   3.767   2.240   0.740
 5570TIP3    H140163   3.818   2.315   0.776
 5570TIP3    H240164   3.827   2.221   0.669
 5571TIP3   OH240165   3.878   2.303   0.269
 5571TIP3    H140166   3.946   2.345   0.212
 5571TIP3    H240167   3.830   2.382   0.303
 5572TIP3   OH240168   4.911   2.698   1.267
 5572TIP3    H140169   4.960   2.625   1.222
 5572TIP3    H240170   4.854   2.646   1.329
 5573TIP3   OH240171   4.637   2.251   0.740
 5573TIP3    H140172   4.541   2.235   0.759
 5573TIP3    H240173   4.683   2.202   0.811
 5574TIP3   OH240174   4.109   2.430   0.514
 5574TIP3    H140175   4.037   2.464   0.570
 5574TIP3    H240176   4.132   2.348   0.562
 5575TIP3   OH240177   4.444   2.451   0.380
 5575TIP3    H140178   4.538   2.475   0.389
 5575TIP3    H240179   4.407   2.505   0.307
 5576TIP3   OH240180   5.048   2.227   1.084
 5576TIP3    H140181   4.991   2.203   1.161
 5576TIP3    H240182   5.020   2.164   1.017
 5577TIP3   OH240183   4.335   2.564   0.145
 5577TIP3    H140184   4.278   2.553   0.066
 5577TIP3    H240185   4.412   2.613   0.109
 5578TIP3   OH240186   5.319   3.772   1.756
 5578TIP3    H140187   5.361   3.803   1.674
 5578TIP3    H240188   5.360   3.830   1.821
 5579TIP3   OH240189   4.131   3.017   1.649
 5579TIP3    H140190   4.188   3.056   1.718
 5579TIP3    H240191   4.054   2.989   1.702
 5580TIP3   OH240192   4.674   2.536   0.926
 5580TIP3    H140193   4.767   2.526   0.899
 5580TIP3    H240194   4.673   2.485   1.007
 5581TIP3   OH240195   4.197   2.152   0.620
 5581TIP3    H140196   4.128   2.102   0.669
 5581TIP3    H240197   4.211   2.091   0.547
 5582TIP3   OH240198   4.567   2.380   1.223
 5582TIP3    H140199   4.504   2.455   1.238
 5582TIP3    H240200   4.650   2.422   1.254
 5583TIP3   OH240201   4.645   3.015   0.395
 5583TIP3    H140202   4.568   2.971   0.352
 5583TIP3    H240203   4.605   3.041   0.481
 5584TIP3   OH240204   5.375   2.970   1.242
 5584TIP3    H140205   5.430   3.025   1.182
 5584TIP3    H240206   5.289   2.972   1.197
 5585TIP3   OH240207   5.029   2.301   0.171
 5585TIP3    H140208   4.941   2.316   0.133
 5585TIP3    H240209   5.041   2.383   0.223
 5586TIP3   OH240210   4.802   3.075   1.515
 5586TIP3    H140211   4.753   3.040   1.591
 5586TIP3    H240212   4.771   3.166   1.513
 5587TIP3   OH240213   5.063   2.495   0.359
 5587TIP3    H140214   5.144   2.477   0.412
 5587TIP3    H240215   5.088   2.578   0.316
 5588TIP3   OH240216   4.144   2.967   0.922
 5588TIP3    H140217   4.202   2.972   0.843
 5588TIP3    H240218   4.187   2.899   0.977
 5589TIP3   OH240219   4.847   3.149   0.279
 5589TIP3    H140220   4.803   3.235   0.295
 5589TIP3    H240221   4.778   3.087   0.313
 5590TIP3   OH240222   3.838   2.808   1.474
 5590TIP3    H140223   3.834   2.736   1.540
 5590TIP3    H240224   3.778   2.777   1.403
 5591TIP3   OH240225   4.523   2.776   1.667
 5591TIP3    H140226   4.486   2.723   1.594
 5591TIP3    H240227   4.605   2.725   1.684
 5592TIP3   OH240228   5.045   3.316   1.493
 5592TIP3    H140229   4.959   3.297   1.455
 5592TIP3    H240230   5.016   3.349   1.581
 5593TIP3   OH240231   5.580   2.499   0.342
 5593TIP3    H140232   5.517   2.489   0.268
 5593TIP3    H240233   5.594   2.595   0.332
 5594TIP3   OH240234   5.593   3.086   1.598
 5594TIP3    H140235   5.501   3.103   1.565
 5594TIP3    H240236   5.643   3.079   1.514
 5595TIP3   OH240237   5.369   3.416   0.335
 5595TIP3    H140238   5.352   3.339   0.391
 5595TIP3    H240239   5.427   3.382   0.263
 5596TIP3   OH240240   5.129   2.866   1.044
 5596TIP3    H140241   5.037   2.845   1.022
 5596TIP3    H240242   5.176   2.791   1.002
 5597TIP3   OH240243   4.379   3.315   0.665
 5597TIP3    H140244   4.395   3.409   0.640
 5597TIP3    H240245   4.288   3.305   0.635
 5598TIP3   OH240246   3.991   2.807   0.090
 5598TIP3    H140247   4.030   2.858   0.164
 5598TIP3    H240248   3.902   2.790   0.126
 5599TIP3   OH240249   4.506   3.075   0.628
 5599TIP3    H140250   4.462   3.163   0.637
 5599TIP3    H240251   4.448   3.016   0.679
 5600TIP3   OH240252   4.582   3.497   1.318
 5600TIP3    H140253   4.645   3.569   1.299
 5600TIP3    H240254   4.634   3.442   1.380
 5601TIP3   OH240255   4.411   3.574   0.587
 5601TIP3    H140256   4.315   3.579   0.609
 5601TIP3    H240257   4.438   3.659   0.628
 5602TIP3   OH240258   4.910   3.091   1.231
 5602TIP3    H140259   4.875   3.073   1.321
 5602TIP3    H240260   4.959   3.008   1.214
 5603TIP3   OH240261   5.162   3.207   0.176
 5603TIP3    H140262   5.196   3.159   0.255
 5603TIP3    H240263   5.071   3.171   0.176
 5604TIP3   OH240264   5.210   3.542   1.482
 5604TIP3    H140265   5.132   3.484   1.471
 5604TIP3    H240266   5.206   3.599   1.402
 5605TIP3   OH240267   5.595   3.632   0.182
 5605TIP3    H140268   5.653   3.696   0.137
 5605TIP3    H240269   5.535   3.694   0.230
 5606TIP3   OH240270   4.014   2.238   1.409
 5606TIP3    H140271   3.983   2.305   1.474
 5606TIP3    H240272   4.000   2.159   1.464
 5607TIP3   OH240273   5.246   3.056   0.385
 5607TIP3    H140274   5.235   2.967   0.423
 5607TIP3    H240275   5.345   3.064   0.383
 5608TIP3   OH240276   3.986   3.455   1.258
 5608TIP3    H140277   4.049   3.381   1.256
 5608TIP3    H240278   4.006   3.493   1.345
 5609TIP3   OH240279   4.439   3.253   0.260
 5609TIP3    H140280   4.506   3.210   0.315
 5609TIP3    H240281   4.451   3.349   0.280
 5610TIP3   OH240282   4.092   2.982   0.282
 5610TIP3    H140283   4.030   3.036   0.334
 5610TIP3    H240284   4.156   3.051   0.251
 5611TIP3   OH240285   4.910   2.218   1.333
 5611TIP3    H140286   4.960   2.255   1.408
 5611TIP3    H240287   4.896   2.126   1.363
 5612TIP3   OH240288   4.963   2.209   0.463
 5612TIP3    H140289   4.985   2.259   0.382
 5612TIP3    H240290   4.993   2.270   0.533
 5613TIP3   OH240291   4.751   3.394   0.361
 5613TIP3    H140292   4.678   3.456   0.345
 5613TIP3    H240293   4.815   3.427   0.295
 5614TIP3   OH240294   4.700   2.403   0.515
 5614TIP3    H140295   4.764   2.470   0.547
 5614TIP3    H240296   4.665   2.363   0.597
 5615TIP3   OH240297   4.777   2.518   1.420
 5615TIP3    H140298   4.728   2.554   1.496
 5615TIP3    H240299   4.827   2.442   1.455
 5616TIP3   OH240300   4.779   2.063   0.587
 5616TIP3    H140301   4.729   2.135   0.630
 5616TIP3    H240302   4.856   2.115   0.552
 5617TIP3   OH240303   4.476   3.514   0.319
 5617TIP3    H140304   4.505   3.599   0.280
 5617TIP3    H240305   4.441   3.548   0.404
 5618TIP3   OH240306   4.310   2.198   0.305
 5618TIP3    H140307   4.300   2.272   0.368
 5618TIP3    H240308   4.397   2.166   0.333
 5619TIP3   OH240309   5.341   2.266   1.539
 5619TIP3    H140310   5.246   2.276   1.513
 5619TIP3    H240311   5.388   2.282   1.455
 5620TIP3   OH240312   5.250   2.647   0.927
 5620TIP3    H140313   5.172   2.589   0.914
 5620TIP3    H240314   5.313   2.588   0.973
 5621TIP3   OH240315   4.171   3.245   0.156
 5621TIP3    H140316   4.253   3.272   0.201
 5621TIP3    H240317   4.208   3.188   0.086
 5622TIP3   OH240318   4.002   2.508   0.066
 5622TIP3    H140319   4.052   2.583   0.102
 5622TIP3    H240320   3.911   2.542   0.063
 5623TIP3   OH240321   5.321   3.585   1.080
 5623TIP3    H140322   5.342   3.657   1.015
 5623TIP3    H240323   5.412   3.565   1.111
 5624TIP3   OH240324   4.102   2.005   0.963
 5624TIP3    H140325   4.090   1.992   0.867
 5624TIP3    H240326   4.060   1.923   0.995
 5625TIP3   OH240327   3.944   3.396   0.569
 5625TIP3    H140328   3.864   3.438   0.604
 5625TIP3    H240329   3.951   3.442   0.482
 5626TIP3   OH240330   3.880   3.643   1.690
 5626TIP3    H140331   3.941   3.618   1.762
 5626TIP3    H240332   3.842   3.556   1.665
 5627TIP3   OH240333   4.372   3.508   1.879
 5627TIP3    H140334   4.466   3.484   1.866
 5627TIP3    H240335   4.332   3.460   1.804
 5628TIP3   OH240336   4.846   3.496   0.098
 5628TIP3    H140337   4.795   3.448   0.029
 5628TIP3    H240338   4.924   3.521   0.046
 5629TIP3   OH240339   4.991   3.409   1.745
 5629TIP3    H140340   4.950   3.324   1.775
 5629TIP3    H240341   5.081   3.392   1.778
 5630TIP3   OH240342   5.245   3.458   0.026
 5630TIP3    H140343   5.239   3.382   0.089
 5630TIP3    H240344   5.340   3.462   0.010
 5631TIP3   OH240345   3.866   2.999   1.766
 5631TIP3    H140346   3.856   2.902   1.762
 5631TIP3    H240347   3.828   3.030   1.681
 5632TIP3   OH240348   4.330   3.025   0.044
 5632TIP3    H140349   4.389   3.016   0.120
 5632TIP3    H240350   4.385   2.984  -0.027
 5633TIP3   OH240351   4.564   3.035   1.716
 5633TIP3    H140352   4.525   3.087   1.642
 5633TIP3    H240353   4.539   2.941   1.696
 5634TIP3   OH240354   5.123   3.025   1.497
 5634TIP3    H140355   5.196   3.090   1.508
 5634TIP3    H240356   5.048   3.084   1.514
 5635TIP3   OH240357   4.000   2.708   1.765
 5635TIP3    H140358   4.056   2.629   1.756
 5635TIP3    H240359   4.005   2.718   1.862
 5636TIP3   OH240360   4.450   2.875   0.264
 5636TIP3    H140361   4.377   2.826   0.307
 5636TIP3    H240362   4.487   2.808   0.203
 5637TIP3   OH240363   4.418   2.629   1.473
 5637TIP3    H140364   4.332   2.673   1.492
 5637TIP3    H240365   4.459   2.689   1.407
 5638TIP3   OH240366   4.561   2.686   0.053
 5638TIP3    H140367   4.594   2.705  -0.037
 5638TIP3    H240368   4.647   2.686   0.103
 5639TIP3   OH240369   4.904   2.928   1.839
 5639TIP3    H140370   4.989   2.910   1.887
 5639TIP3    H240371   4.848   2.857   1.871
 5640TIP3   OH240372   5.463   2.965   8.490
 5640TIP3    H140373   5.414   2.989   8.410
 5640TIP3    H240374   5.496   3.051   8.522
 5641TIP3   OH240375   4.481   2.401   1.577
 5641TIP3    H140376   4.463   2.336   1.507
 5641TIP3    H240377   4.462   2.488   1.532
 5642TIP3   OH240378   4.463   2.208   1.398
 5642TIP3    H140379   4.519   2.263   1.339
 5642TIP3    H240380   4.378   2.202   1.349
 5643TIP3   OH240381   4.598   2.791   1.350
 5643TIP3    H140382   4.678   2.842   1.332
 5643TIP3    H240383   4.529   2.855   1.320
 5644TIP3   OH240384   5.065   2.520   1.819
 5644TIP3    H140385   5.148   2.473   1.831
 5644TIP3    H240386   5.087   2.607   1.857
 5645TIP3   OH240387   5.177   2.833   1.678
 5645TIP3    H140388   5.152   2.902   1.614
 5645TIP3    H240389   5.274   2.833   1.667
 5646TIP3   OH240390   4.239   2.529   1.753
 5646TIP3    H140391   4.188   2.474   1.814
 5646TIP3    H240392   4.304   2.466   1.719
 5647TIP3   OH240393   4.557   1.975   1.318
 5647TIP3    H140394   4.514   2.057   1.351
 5647TIP3    H240395   4.488   1.908   1.331
 5648TIP3   OH240396   4.648   2.367   1.779
 5648TIP3    H140397   4.588   2.361   1.856
 5648TIP3    H240398   4.586   2.366   1.702
 5649TIP3   OH240399   4.912   2.312   1.666
 5649TIP3    H140400   4.828   2.324   1.712
 5649TIP3    H240401   4.968   2.274   1.739
 5650TIP3   OH240402   5.074   2.166   1.845
 5650TIP3    H140403   5.057   2.069   1.848
 5650TIP3    H240404   5.131   2.183   1.922
 5651TIP3   OH240405   4.021   2.283   1.755
 5651TIP3    H140406   4.030   2.191   1.728
 5651TIP3    H240407   4.022   2.277   1.853
 5652TIP3   OH240408   4.534   3.752   0.213
 5652TIP3    H140409   4.622   3.792   0.222
 5652TIP3    H240410   4.527   3.750   0.117
 5653TIP3   OH240411   3.883   3.199   0.137
 5653TIP3    H140412   3.980   3.215   0.135
 5653TIP3    H240413   3.869   3.168   0.047
 5654TIP3   OH240414   3.770   3.728   0.630
 5654TIP3    H140415   3.700   3.671   0.590
 5654TIP3    H240416   3.802   3.667   0.699
 5655TIP3   OH240417   3.855   3.548   0.813
 5655TIP3    H140418   3.792   3.486   0.853
 5655TIP3    H240419   3.913   3.572   0.890
 5656TIP3   OH240420   5.603   3.649   1.093
 5656TIP3    H140421   5.637   3.624   1.180
 5656TIP3    H240422   5.681   3.695   1.059
 5657TIP3   OH240423   5.534   3.599   1.376
 5657TIP3    H140424   5.501   3.517   1.332
 5657TIP3    H240425   5.528   3.567   1.468
 5658TIP3   OH240426   5.425   3.198   1.895
 5658TIP3    H140427   5.356   3.138   1.930
 5658TIP3    H240428   5.412   3.272   1.955
 5659TIP3   OH240429   5.511   3.013   0.386
 5659TIP3    H140430   5.581   3.053   0.443
 5659TIP3    H240431   5.493   2.934   0.442
 5660TIP3   OH240432   5.549   2.786   0.555
 5660TIP3    H140433   5.490   2.756   0.628
 5660TIP3    H240434   5.600   2.862   0.595
 5661TIP3   OH240435   5.545   3.082   1.073
 5661TIP3    H140436   5.608   3.009   1.051
 5661TIP3    H240437   5.599   3.163   1.059
 5662TIP3   OH240438   5.406   3.369   1.315
 5662TIP3    H140439   5.349   3.403   1.387
 5662TIP3    H240440   5.344   3.336   1.247
 5663TIP3   OH240441   5.587   2.766   0.228
 5663TIP3    H140442   5.517   2.799   0.170
 5663TIP3    H240443   5.590   2.835   0.297
 5664TIP3   OH240444   5.374   2.512   0.103
 5664TIP3    H140445   5.451   2.557   0.064
 5664TIP3    H240446   5.379   2.427   0.055
 5665TIP3   OH240447   5.353   2.659   0.684
 5665TIP3    H140448   5.346   2.566   0.659
 5665TIP3    H240449   5.332   2.658   0.780
 5666TIP3   OH240450   3.858   2.870   1.089
 5666TIP3    H140451   3.848   2.849   0.994
 5666TIP3    H240452   3.949   2.839   1.108
 5667TIP3   OH240453   5.459   2.855   1.621
 5667TIP3    H140454   5.515   2.781   1.651
 5667TIP3    H240455   5.522   2.931   1.622
 5668TIP3   OH240456   5.581   2.612   1.670
 5668TIP3    H140457   5.486   2.592   1.687
 5668TIP3    H240458   5.619   2.524   1.688
 5669TIP3   OH240459   5.360   2.265  -0.010
 5669TIP3    H140460   5.421   2.225   0.056
 5669TIP3    H240461   5.272   2.254   0.030
 5670TIP3   OH240462   5.293   2.431   0.486
 5670TIP3    H140463   5.326   2.346   0.522
 5670TIP3    H240464   5.349   2.436   0.408
 5671TIP3   OH240465   5.425   2.478   1.050
 5671TIP3    H140466   5.521   2.500   1.058
 5671TIP3    H240467   5.400   2.488   1.144
 5672TIP3   OH240468   5.406   2.547   1.305
 5672TIP3    H140469   5.328   2.576   1.358
 5672TIP3    H240470   5.453   2.632   1.287
 5673TIP3   OH240471   3.786   2.392   1.680
 5673TIP3    H140472   3.874   2.381   1.722
 5673TIP3    H240473   3.740   2.314   1.713
 5674TIP3   OH240474   5.366   2.167   0.521
 5674TIP3    H140475   5.414   2.131   0.599
 5674TIP3    H240476   5.332   2.085   0.481
 5675TIP3   OH240477   3.969   2.210   1.059
 5675TIP3    H140478   4.017   2.127   1.039
 5675TIP3    H240479   3.978   2.253   0.971
 5676TIP3   OH240480   3.780   2.522   1.094
 5676TIP3    H140481   3.809   2.460   1.024
 5676TIP3    H240482   3.836   2.599   1.079
 5677TIP3   OH240483   5.539   2.172   1.700
 5677TIP3    H140484   5.467   2.216   1.649
 5677TIP3    H240485   5.550   2.093   1.646
 5678TIP3   OH240486   5.555   2.172   0.166
 5678TIP3    H140487   5.602   2.106   0.114
 5678TIP3    H240488   5.631   2.221   0.205
 5679TIP3   OH240489   3.756   2.085   0.411
 5679TIP3    H140490   3.726   2.129   0.491
 5679TIP3    H240491   3.804   2.156   0.365
 5680TIP3   OH240492   5.297   3.639   0.703
 5680TIP3    H140493   5.359   3.629   0.627
 5680TIP3    H240494   5.341   3.705   0.759
 5681TIP3   OH240495   3.795   2.018   1.269
 5681TIP3    H140496   3.743   2.059   1.340
 5681TIP3    H240497   3.832   2.097   1.226
 5682TIP3   OH240498   4.033   3.318   1.720
 5682TIP3    H140499   3.958   3.335   1.661
 5682TIP3    H240500   3.990   3.321   1.807
 5683TIP3   OH240501   4.310   3.482   1.378
 5683TIP3    H140502   4.316   3.572   1.339
 5683TIP3    H240503   4.404   3.458   1.376
 5684TIP3   OH240504   4.749   3.601   1.644
 5684TIP3    H140505   4.771   3.594   1.738
 5684TIP3    H240506   4.834   3.633   1.605
 5685TIP3   OH240507   4.976   3.730   1.588
 5685TIP3    H140508   5.061   3.685   1.579
 5685TIP3    H240509   4.995   3.807   1.644
 5686TIP3   OH240510   5.500   1.957   1.474
 5686TIP3    H140511   5.406   1.977   1.455
 5686TIP3    H240512   5.511   1.874   1.425
 5687TIP3   OH240513   4.054   3.781   1.337
 5687TIP3    H140514   3.971   3.822   1.303
 5687TIP3    H240515   4.038   3.787   1.432
 5688TIP3   OH240516   4.310   3.731   1.261
 5688TIP3    H140517   4.216   3.747   1.289
 5688TIP3    H240518   4.317   3.792   1.185
 5689TIP3   OH240519   4.773   3.703   1.160
 5689TIP3    H140520   4.709   3.745   1.101
 5689TIP3    H240521   4.792   3.776   1.223
 5690TIP3   OH240522   4.983   3.574   1.302
 5690TIP3    H140523   4.906   3.622   1.265
 5690TIP3    H240524   5.050   3.646   1.301
 5691TIP3   OH240525   5.207   3.729   1.280
 5691TIP3    H140526   5.228   3.824   1.282
 5691TIP3    H240527   5.276   3.699   1.217
 5692TIP3   OH240528   4.004   3.614   1.026
 5692TIP3    H140529   3.978   3.565   1.108
 5692TIP3    H240530   4.095   3.580   1.010
 5693TIP3   OH240531   4.229   3.507   0.923
 5693TIP3    H140532   4.221   3.412   0.942
 5693TIP3    H240533   4.316   3.524   0.966
 5694TIP3   OH240534   4.461   3.507   1.051
 5694TIP3    H140535   4.502   3.420   1.036
 5694TIP3    H240536   4.486   3.525   1.143
 5695TIP3   OH240537   4.750   2.070   0.925
 5695TIP3    H140538   4.680   2.003   0.942
 5695TIP3    H240539   4.826   2.014   0.904
 5696TIP3   OH240540   5.334   1.916   0.900
 5696TIP3    H140541   5.394   1.971   0.845
 5696TIP3    H240542   5.245   1.952   0.877
 5697TIP3   OH240543   5.492   2.038   0.728
 5697TIP3    H140544   5.555   1.975   0.685
 5697TIP3    H240545   5.556   2.111   0.747
 5698TIP3   OH240546   4.050   1.936   0.709
 5698TIP3    H140547   3.965   1.931   0.660
 5698TIP3    H240548   4.092   1.852   0.679
 5699TIP3   OH240549   3.910   1.935   0.243
 5699TIP3    H140550   3.975   1.996   0.201
 5699TIP3    H240551   3.860   1.995   0.303
 5700TIP3   OH240552   4.492   1.916   0.690
 5700TIP3    H140553   4.573   1.907   0.637
 5700TIP3    H240554   4.527   1.952   0.773
 5701TIP3   OH240555   5.076   1.976   0.810
 5701TIP3    H140556   5.045   1.990   0.719
 5701TIP3    H240557   5.030   1.892   0.833
 5702TIP3   OH240558   5.223   1.939   0.403
 5702TIP3    H140559   5.150   2.000   0.391
 5702TIP3    H240560   5.175   1.858   0.431
 5703TIP3   OH240561   3.920   3.566   0.359
 5703TIP3    H140562   3.830   3.556   0.322
 5703TIP3    H240563   3.933   3.660   0.333
 5704TIP3   OH240564   4.097   2.081   0.124
 5704TIP3    H140565   4.179   2.030   0.115
 5704TIP3    H240566   4.129   2.162   0.168
 5705TIP3   OH240567   4.635   2.195   0.362
 5705TIP3    H140568   4.678   2.137   0.427
 5705TIP3    H240569   4.644   2.282   0.409
 5706TIP3   OH240570   4.823   3.750   0.182
 5706TIP3    H140571   4.920   3.742   0.168
 5706TIP3    H240572   4.805   3.656   0.162
 5707TIP3   OH240573   5.463   3.601   0.502
 5707TIP3    H140574   5.431   3.534   0.436
 5707TIP3    H240575   5.458   3.681   0.445
 5708TIP3   OH240576   4.035   2.002   1.612
 5708TIP3    H140577   3.969   1.934   1.633
 5708TIP3    H240578   4.099   1.990   1.686
 5709TIP3   OH240579   4.202   1.938   1.823
 5709TIP3    H140580   4.279   1.898   1.779
 5709TIP3    H240581   4.168   1.859   1.869
 5710TIP3   OH240582   4.119   3.655   0.074
 5710TIP3    H140583   4.059   3.673   0.148
 5710TIP3    H240584   4.163   3.574   0.101
 5711TIP3   OH240585   5.025   1.905   1.845
 5711TIP3    H140586   4.962   1.839   1.879
 5711TIP3    H240587   5.110   1.860   1.857
 5712TIP3   OH240588   5.413   3.524   1.661
 5712TIP3    H140589   5.330   3.504   1.613
 5712TIP3    H240590   5.389   3.606   1.708
 5713TIP3   OH240591   6.872   2.895   0.684
 5713TIP3    H140592   6.854   2.991   0.690
 5713TIP3    H240593   6.789   2.867   0.641
 5714TIP3   OH240594   6.710   2.808   1.038
 5714TIP3    H140595   6.751   2.745   1.101
 5714TIP3    H240596   6.637   2.755   1.003
 5715TIP3   OH240597   5.951   2.754   1.165
 5715TIP3    H140598   5.965   2.681   1.227
 5715TIP3    H240599   6.036   2.801   1.173
 5716TIP3   OH240600   7.116   3.093   0.891
 5716TIP3    H140601   7.099   3.024   0.958
 5716TIP3    H240602   7.101   3.175   0.942
 5717TIP3   OH240603   6.050   3.267   1.014
 5717TIP3    H140604   6.018   3.175   1.005
 5717TIP3    H240605   6.146   3.247   1.011
 5718TIP3   OH240606   5.747   2.589   0.565
 5718TIP3    H140607   5.699   2.672   0.577
 5718TIP3    H240608   5.698   2.555   0.488
 5719TIP3   OH240609   5.822   2.799   0.847
 5719TIP3    H140610   5.831   2.704   0.827
 5719TIP3    H240611   5.811   2.846   0.762
 5720TIP3   OH240612   6.812   3.630   0.856
 5720TIP3    H140613   6.879   3.579   0.804
 5720TIP3    H240614   6.785   3.561   0.917
 5721TIP3   OH240615   6.556   3.058   1.113
 5721TIP3    H140616   6.588   3.008   1.038
 5721TIP3    H240617   6.642   3.078   1.156
 5722TIP3   OH240618   7.445   2.222   1.120
 5722TIP3    H140619   7.439   2.286   1.193
 5722TIP3    H240620   7.501   2.272   1.058
 5723TIP3   OH240621   6.913   2.496   1.131
 5723TIP3    H140622   6.942   2.405   1.149
 5723TIP3    H240623   6.880   2.486   1.040
 5724TIP3   OH240624   6.147   2.295   0.824
 5724TIP3    H140625   6.181   2.374   0.778
 5724TIP3    H240626   6.199   2.230   0.772
 5725TIP3   OH240627   6.954   2.321   0.668
 5725TIP3    H140628   7.007   2.289   0.743
 5725TIP3    H240629   7.020   2.372   0.620
 5726TIP3   OH240630   5.857   2.503   0.878
 5726TIP3    H140631   5.923   2.472   0.942
 5726TIP3    H240632   5.904   2.489   0.794
 5727TIP3   OH240633   6.352   2.713   0.852
 5727TIP3    H140634   6.427   2.662   0.885
 5727TIP3    H240635   6.320   2.646   0.786
 5728TIP3   OH240636   7.436   2.331   1.373
 5728TIP3    H140637   7.391   2.414   1.341
 5728TIP3    H240638   7.505   2.371   1.426
 5729TIP3   OH240639   6.100   2.191   1.233
 5729TIP3    H140640   6.070   2.252   1.162
 5729TIP3    H240641   6.027   2.202   1.297
 5730TIP3   OH240642   6.777   3.133   0.579
 5730TIP3    H140643   6.756   3.132   0.484
 5730TIP3    H240644   6.727   3.213   0.608
 5731TIP3   OH240645   6.330   2.960   1.233
 5731TIP3    H140646   6.268   3.033   1.257
 5731TIP3    H240647   6.399   3.010   1.184
 5732TIP3   OH240648   7.124   2.273   0.882
 5732TIP3    H140649   7.066   2.224   0.943
 5732TIP3    H240650   7.210   2.229   0.891
 5733TIP3   OH240651   6.046   2.393   1.047
 5733TIP3    H140652   6.115   2.451   1.086
 5733TIP3    H240653   6.091   2.365   0.963
 5734TIP3   OH240654   6.195   3.177   1.312
 5734TIP3    H140655   6.183   3.271   1.289
 5734TIP3    H240656   6.113   3.161   1.365
 5735TIP3   OH240657   5.854   3.197   0.381
 5735TIP3    H140658   5.794   3.199   0.305
 5735TIP3    H240659   5.805   3.143   0.447
 5736TIP3   OH240660   7.135   3.308   1.059
 5736TIP3    H140661   7.040   3.321   1.084
 5736TIP3    H240662   7.162   3.400   1.050
 5737TIP3   OH240663   7.184   2.158   1.196
 5737TIP3    H140664   7.111   2.183   1.137
 5737TIP3    H240665   7.263   2.194   1.151
 5738TIP3   OH240666   6.433   1.942   0.966
 5738TIP3    H140667   6.408   1.849   0.971
 5738TIP3    H240668   6.349   1.985   0.996
 5739TIP3   OH240669   6.976   3.470   0.725
 5739TIP3    H140670   7.007   3.386   0.683
 5739TIP3    H240671   7.054   3.528   0.709
 5740TIP3   OH240672   7.098   3.266   0.587
 5740TIP3    H140673   7.076   3.194   0.525
 5740TIP3    H240674   7.133   3.219   0.664
 5741TIP3   OH240675   7.221   3.102   1.470
 5741TIP3    H140676   7.242   3.039   1.397
 5741TIP3    H240677   7.221   3.186   1.420
 5742TIP3   OH240678   6.700   2.813   0.437
 5742TIP3    H140679   6.628   2.877   0.421
 5742TIP3    H240680   6.770   2.846   0.378
 5743TIP3   OH240681   6.702   2.700   0.157
 5743TIP3    H140682   6.782   2.727   0.207
 5743TIP3    H240683   6.740   2.645   0.087
 5744TIP3   OH240684   7.413   2.756   1.246
 5744TIP3    H140685   7.351   2.831   1.231
 5744TIP3    H240686   7.489   2.782   1.188
 5745TIP3   OH240687   7.079   2.819   0.523
 5745TIP3    H140688   7.007   2.843   0.586
 5745TIP3    H240689   7.144   2.781   0.586
 5746TIP3   OH240690   7.075   2.676   1.443
 5746TIP3    H140691   7.034   2.747   1.494
 5746TIP3    H240692   7.018   2.678   1.364
 5747TIP3   OH240693   6.208   2.904   0.724
 5747TIP3    H140694   6.182   2.868   0.638
 5747TIP3    H240695   6.254   2.829   0.768
 5748TIP3   OH240696   6.354   3.234   0.993
 5748TIP3    H140697   6.362   3.204   0.901
 5748TIP3    H240698   6.420   3.177   1.038
 5749TIP3   OH240699   6.236   2.759   1.096
 5749TIP3    H140700   6.276   2.762   1.007
 5749TIP3    H240701   6.278   2.838   1.138
 5750TIP3   OH240702   6.894   3.335   1.146
 5750TIP3    H140703   6.861   3.408   1.202
 5750TIP3    H240704   6.867   3.257   1.198
 5751TIP3   OH240705   6.345   3.216   1.534
 5751TIP3    H140706   6.277   3.272   1.578
 5751TIP3    H240707   6.303   3.202   1.447
 5752TIP3   OH240708   6.934   2.769   0.299
 5752TIP3    H140709   6.991   2.787   0.377
 5752TIP3    H240710   6.976   2.825   0.230
 5753TIP3   OH240711   6.047   2.822   1.466
 5753TIP3    H140712   6.021   2.889   1.531
 5753TIP3    H240713   5.962   2.775   1.460
 5754TIP3   OH240714   6.664   3.373   0.648
 5754TIP3    H140715   6.724   3.419   0.708
 5754TIP3    H240716   6.626   3.444   0.595
 5755TIP3   OH240717   6.158   3.382   1.622
 5755TIP3    H140718   6.135   3.428   1.539
 5755TIP3    H240719   6.071   3.369   1.665
 5756TIP3   OH240720   7.302   1.907   0.293
 5756TIP3    H140721   7.210   1.927   0.268
 5756TIP3    H240722   7.344   1.992   0.270
 5757TIP3   OH240723   6.129   2.753   0.435
 5757TIP3    H140724   6.079   2.834   0.409
 5757TIP3    H240725   6.058   2.690   0.453
 5758TIP3   OH240726   7.406   3.384   0.098
 5758TIP3    H140727   7.436   3.473   0.125
 5758TIP3    H240728   7.491   3.335   0.099
 5759TIP3   OH240729   5.734   3.059   1.373
 5759TIP3    H140730   5.683   3.054   1.290
 5759TIP3    H240731   5.766   2.966   1.376
 5760TIP3   OH240732   5.711   3.308   1.045
 5760TIP3    H140733   5.794   3.280   1.005
 5760TIP3    H240734   5.736   3.388   1.092
 5761TIP3   OH240735   7.508   3.421   1.642
 5761TIP3    H140736   7.525   3.328   1.621
 5761TIP3    H240737   7.418   3.415   1.683
 5762TIP3   OH240738   6.608   3.299   1.535
 5762TIP3    H140739   6.628   3.387   1.573
 5762TIP3    H240740   6.512   3.289   1.551
 5763TIP3   OH240741   6.650   3.704   0.444
 5763TIP3    H140742   6.649   3.733   0.350
 5763TIP3    H240743   6.660   3.791   0.489
 5764TIP3   OH240744   6.031   3.582   0.663
 5764TIP3    H140745   6.049   3.543   0.752
 5764TIP3    H240746   5.945   3.538   0.639
 5765TIP3   OH240747   6.956   3.638   0.160
 5765TIP3    H140748   7.003   3.560   0.124
 5765TIP3    H240749   6.966   3.625   0.257
 5766TIP3   OH240750   6.923   3.629   0.449
 5766TIP3    H140751   6.825   3.640   0.443
 5766TIP3    H240752   6.928   3.547   0.500
 5767TIP3   OH240753   7.215   2.534   1.662
 5767TIP3    H140754   7.158   2.572   1.594
 5767TIP3    H240755   7.240   2.446   1.628
 5768TIP3   OH240756   5.960   3.179   1.446
 5768TIP3    H140757   5.959   3.145   1.539
 5768TIP3    H240758   5.875   3.140   1.415
 5769TIP3   OH240759   6.207   2.030   1.060
 5769TIP3    H140760   6.120   2.022   1.017
 5769TIP3    H240761   6.184   2.084   1.139
 5770TIP3   OH240762   6.711   1.979   1.373
 5770TIP3    H140763   6.743   1.924   1.447
 5770TIP3    H240764   6.612   1.972   1.377
 5771TIP3   OH240765   6.981   2.395   1.474
 5771TIP3    H140766   6.926   2.353   1.545
 5771TIP3    H240767   7.015   2.472   1.521
 5772TIP3   OH240768   7.061   2.899   0.098
 5772TIP3    H140769   7.065   2.922   0.005
 5772TIP3    H240770   7.139   2.950   0.128
 5773TIP3   OH240771   6.654   2.275   0.111
 5773TIP3    H140772   6.618   2.235   0.193
 5773TIP3    H240773   6.687   2.196   0.065
 5774TIP3   OH240774   6.225   2.522   1.194
 5774TIP3    H140775   6.148   2.526   1.255
 5774TIP3    H240776   6.220   2.612   1.152
 5775TIP3   OH240777   6.244   2.523   0.688
 5775TIP3    H140778   6.151   2.529   0.657
 5775TIP3    H240779   6.279   2.454   0.628
 5776TIP3   OH240780   6.799   2.595   0.551
 5776TIP3    H140781   6.763   2.677   0.509
 5776TIP3    H240782   6.856   2.562   0.478
 5777TIP3   OH240783   6.677   2.615   1.681
 5777TIP3    H140784   6.646   2.525   1.703
 5777TIP3    H240785   6.722   2.641   1.763
 5778TIP3   OH240786   6.860   2.558   0.854
 5778TIP3    H140787   6.854   2.635   0.795
 5778TIP3    H240788   6.877   2.489   0.787
 5779TIP3   OH240789   5.998   2.522   1.332
 5779TIP3    H140790   6.005   2.546   1.425
 5779TIP3    H240791   5.955   2.434   1.335
 5780TIP3   OH240792   6.329   2.309   0.062
 5780TIP3    H140793   6.332   2.253   0.142
 5780TIP3    H240794   6.294   2.391   0.098
 5781TIP3   OH240795   5.668   2.231   0.762
 5781TIP3    H140796   5.734   2.237   0.833
 5781TIP3    H240797   5.704   2.288   0.693
 5782TIP3   OH240798   5.773   2.305   0.275
 5782TIP3    H140799   5.844   2.325   0.213
 5782TIP3    H240800   5.723   2.389   0.273
 5783TIP3   OH240801   6.798   2.695   1.267
 5783TIP3    H140802   6.854   2.624   1.226
 5783TIP3    H240803   6.734   2.640   1.315
 5784TIP3   OH240804   6.530   2.301   0.829
 5784TIP3    H140805   6.460   2.266   0.769
 5784TIP3    H240806   6.581   2.221   0.855
 5785TIP3   OH240807   5.985   2.476   0.634
 5785TIP3    H140808   5.909   2.529   0.601
 5785TIP3    H240809   5.969   2.391   0.590
 5786TIP3   OH240810   6.349   2.452   0.355
 5786TIP3    H140811   6.425   2.494   0.397
 5786TIP3    H240812   6.288   2.526   0.338
 5787TIP3   OH240813   6.927   2.203   1.100
 5787TIP3    H140814   6.861   2.202   1.172
 5787TIP3    H240815   6.880   2.149   1.033
 5788TIP3   OH240816   6.180   2.598   0.156
 5788TIP3    H140817   6.145   2.554   0.076
 5788TIP3    H240818   6.272   2.618   0.131
 5789TIP3   OH240819   7.194   3.762   1.753
 5789TIP3    H140820   7.255   3.798   1.685
 5789TIP3    H240821   7.258   3.749   1.826
 5790TIP3   OH240822   5.958   3.048   1.688
 5790TIP3    H140823   6.050   3.049   1.721
 5790TIP3    H240824   5.922   2.972   1.737
 5791TIP3   OH240825   6.589   2.535   0.958
 5791TIP3    H140826   6.680   2.524   0.928
 5791TIP3    H240827   6.548   2.453   0.922
 5792TIP3   OH240828   6.032   2.157   0.544
 5792TIP3    H140829   6.004   2.096   0.615
 5792TIP3    H240830   6.126   2.171   0.565
 5793TIP3   OH240831   6.436   2.370   1.223
 5793TIP3    H140832   6.363   2.434   1.208
 5793TIP3    H240833   6.512   2.425   1.205
 5794TIP3   OH240834   6.526   3.021   0.405
 5794TIP3    H140835   6.451   2.968   0.370
 5794TIP3    H240836   6.491   3.053   0.491
 5795TIP3   OH240837   7.252   2.977   1.226
 5795TIP3    H140838   7.313   3.029   1.167
 5795TIP3    H240839   7.179   2.954   1.165
 5796TIP3   OH240840   6.914   2.312   0.188
 5796TIP3    H140841   6.829   2.340   0.149
 5796TIP3    H240842   6.942   2.393   0.234
 5797TIP3   OH240843   6.623   3.022   1.470
 5797TIP3    H140844   6.667   3.024   1.556
 5797TIP3    H240845   6.589   3.114   1.466
 5798TIP3   OH240846   6.991   2.509   0.367
 5798TIP3    H140847   7.072   2.497   0.419
 5798TIP3    H240848   7.007   2.592   0.318
 5799TIP3   OH240849   6.047   2.979   0.944
 5799TIP3    H140850   6.100   2.972   0.862
 5799TIP3    H240851   5.983   2.906   0.933
 5800TIP3   OH240852   6.737   3.157   0.279
 5800TIP3    H140853   6.688   3.238   0.309
 5800TIP3    H240854   6.672   3.087   0.299
 5801TIP3   OH240855   5.749   2.790   1.443
 5801TIP3    H140856   5.720   2.736   1.518
 5801TIP3    H240857   5.684   2.762   1.375
 5802TIP3   OH240858   6.453   2.767   1.657
 5802TIP3    H140859   6.477   2.821   1.580
 5802TIP3    H240860   6.534   2.776   1.710
 5803TIP3   OH240861   6.925   3.282   1.515
 5803TIP3    H140862   6.842   3.298   1.468
 5803TIP3    H240863   6.902   3.323   1.601
 5804TIP3   OH240864   7.439   2.525   0.330
 5804TIP3    H140865   7.387   2.494   0.252
 5804TIP3    H240866   7.437   2.621   0.313
 5805TIP3   OH240867   7.481   3.100   1.591
 5805TIP3    H140868   7.393   3.123   1.554
 5805TIP3    H240869   7.530   3.079   1.508
 5806TIP3   OH240870   7.365   3.341   0.364
 5806TIP3    H140871   7.278   3.308   0.393
 5806TIP3    H240872   7.357   3.340   0.266
 5807TIP3   OH240873   7.044   2.888   1.059
 5807TIP3    H140874   6.949   2.886   1.040
 5807TIP3    H240875   7.071   2.809   1.008
 5808TIP3   OH240876   6.239   3.314   0.693
 5808TIP3    H140877   6.269   3.395   0.647
 5808TIP3    H240878   6.149   3.304   0.659
 5809TIP3   OH240879   5.858   2.825   0.104
 5809TIP3    H140880   5.904   2.876   0.174
 5809TIP3    H240881   5.768   2.816   0.142
 5810TIP3   OH240882   6.392   3.102   0.634
 5810TIP3    H140883   6.339   3.183   0.654
 5810TIP3    H240884   6.347   3.033   0.686
 5811TIP3   OH240885   6.465   3.518   1.314
 5811TIP3    H140886   6.530   3.577   1.272
 5811TIP3    H240887   6.525   3.473   1.378
 5812TIP3   OH240888   6.286   3.566   0.574
 5812TIP3    H140889   6.190   3.566   0.597
 5812TIP3    H240890   6.314   3.648   0.618
 5813TIP3   OH240891   6.785   3.083   1.247
 5813TIP3    H140892   6.742   3.049   1.329
 5813TIP3    H240893   6.830   3.003   1.215
 5814TIP3   OH240894   7.029   3.215   0.184
 5814TIP3    H140895   7.054   3.176   0.270
 5814TIP3    H240896   6.942   3.171   0.174
 5815TIP3   OH240897   7.101   3.546   1.462
 5815TIP3    H140898   7.010   3.517   1.441
 5815TIP3    H240899   7.117   3.614   1.391
 5816TIP3   OH240900   7.485   3.639   0.191
 5816TIP3    H140901   7.512   3.698   0.120
 5816TIP3    H240902   7.418   3.696   0.235
 5817TIP3   OH240903   5.868   2.261   1.389
 5817TIP3    H140904   5.785   2.308   1.406
 5817TIP3    H240905   5.869   2.194   1.460
 5818TIP3   OH240906   7.123   3.059   0.390
 5818TIP3    H140907   7.097   2.976   0.437
 5818TIP3    H240908   7.220   3.050   0.391
 5819TIP3   OH240909   5.871   3.441   1.284
 5819TIP3    H140910   5.938   3.370   1.293
 5819TIP3    H240911   5.816   3.428   1.362
 5820TIP3   OH240912   6.322   3.244   0.250
 5820TIP3    H140913   6.392   3.206   0.305
 5820TIP3    H240914   6.333   3.341   0.267
 5821TIP3   OH240915   5.986   2.970   0.297
 5821TIP3    H140916   5.945   3.040   0.353
 5821TIP3    H240917   6.057   3.020   0.254
 5822TIP3   OH240918   6.772   2.251   1.367
 5822TIP3    H140919   6.867   2.270   1.385
 5822TIP3    H240920   6.758   2.162   1.404
 5823TIP3   OH240921   6.862   2.183   0.416
 5823TIP3    H140922   6.894   2.216   0.329
 5823TIP3    H240923   6.857   2.268   0.463
 5824TIP3   OH240924   6.629   3.396   0.340
 5824TIP3    H140925   6.569   3.471   0.353
 5824TIP3    H240926   6.688   3.429   0.268
 5825TIP3   OH240927   6.606   2.371   0.493
 5825TIP3    H140928   6.652   2.452   0.521
 5825TIP3    H240929   6.529   2.364   0.553
 5826TIP3   OH240930   6.666   2.498   1.418
 5826TIP3    H140931   6.735   2.508   1.486
 5826TIP3    H240932   6.693   2.412   1.377
 5827TIP3   OH240933   6.649   2.067   0.586
 5827TIP3    H140934   6.606   2.142   0.630
 5827TIP3    H240935   6.727   2.111   0.544
 5828TIP3   OH240936   6.351   3.513   0.302
 5828TIP3    H140937   6.378   3.599   0.266
 5828TIP3    H240938   6.315   3.539   0.389
 5829TIP3   OH240939   6.242   2.181   0.286
 5829TIP3    H140940   6.215   2.258   0.336
 5829TIP3    H240941   6.305   2.148   0.352
 5830TIP3   OH240942   7.229   2.280   1.562
 5830TIP3    H140943   7.139   2.281   1.524
 5830TIP3    H240944   7.285   2.294   1.483
 5831TIP3   OH240945   7.099   2.667   0.916
 5831TIP3    H140946   7.019   2.611   0.913
 5831TIP3    H240947   7.155   2.610   0.974
 5832TIP3   OH240948   6.052   3.258   0.125
 5832TIP3    H140949   6.112   3.281   0.197
 5832TIP3    H240950   6.105   3.191   0.079
 5833TIP3   OH240951   5.881   2.528   0.083
 5833TIP3    H140952   5.919   2.616   0.099
 5833TIP3    H240953   5.806   2.547   0.024
 5834TIP3   OH240954   7.258   3.560   1.085
 5834TIP3    H140955   7.231   3.618   1.012
 5834TIP3    H240956   7.352   3.587   1.093
 5835TIP3   OH240957   5.958   1.977   0.977
 5835TIP3    H140958   5.959   1.965   0.879
 5835TIP3    H240959   5.928   1.887   1.004
 5836TIP3   OH240960   5.840   3.407   0.598
 5836TIP3    H140961   5.761   3.351   0.601
 5836TIP3    H240962   5.865   3.392   0.504
 5837TIP3   OH240963   5.779   3.635   1.705
 5837TIP3    H140964   5.867   3.604   1.734
 5837TIP3    H240965   5.738   3.557   1.664
 5838TIP3   OH240966   6.725   3.505   0.110
 5838TIP3    H140967   6.662   3.448   0.060
 5838TIP3    H240968   6.787   3.530   0.040
 5839TIP3   OH240969   6.872   3.403   1.753
 5839TIP3    H140970   6.835   3.323   1.794
 5839TIP3    H240971   6.961   3.402   1.794
 5840TIP3   OH240972   7.134   3.475   0.025
 5840TIP3    H140973   7.138   3.400   0.088
 5840TIP3    H240974   7.229   3.491   0.009
 5841TIP3   OH240975   6.211   3.016   0.071
 5841TIP3    H140976   6.276   3.009   0.144
 5841TIP3    H240977   6.268   2.994  -0.006
 5842TIP3   OH240978   6.416   3.038   1.719
 5842TIP3    H140979   6.402   3.096   1.641
 5842TIP3    H240980   6.384   2.950   1.690
 5843TIP3   OH240981   6.981   2.999   1.516
 5843TIP3    H140982   7.073   3.036   1.513
 5843TIP3    H240983   6.932   3.082   1.508
 5844TIP3   OH240984   5.878   2.754   1.732
 5844TIP3    H140985   5.896   2.664   1.768
 5844TIP3    H240986   5.786   2.766   1.756
 5845TIP3   OH240987   6.342   2.866   0.271
 5845TIP3    H140988   6.262   2.820   0.304
 5845TIP3    H240989   6.375   2.803   0.203
 5846TIP3   OH240990   6.234   2.630   1.468
 5846TIP3    H140991   6.172   2.704   1.485
 5846TIP3    H240992   6.278   2.661   1.387
 5847TIP3   OH240993   6.439   2.677   0.085
 5847TIP3    H140994   6.456   2.646  -0.005
 5847TIP3    H240995   6.529   2.672   0.126
 5848TIP3   OH240996   6.776   2.910   1.823
 5848TIP3    H140997   6.854   2.881   1.771
 5848TIP3    H240998   6.760   2.831   1.877
 5849TIP3   OH240999   7.337   2.961   8.493
 5849TIP3    H141000   7.363   2.890   8.431
 5849TIP3    H241001   7.407   3.027   8.484
 5850TIP3   OH241002   6.308   2.382   1.561
 5850TIP3    H141003   6.325   2.297   1.512
 5850TIP3    H241004   6.225   2.410   1.520
 5851TIP3   OH241005   6.333   2.189   1.384
 5851TIP3    H141006   6.370   2.245   1.311
 5851TIP3    H241007   6.243   2.171   1.350
 5852TIP3   OH241008   6.484   2.775   1.379
 5852TIP3    H141009   6.577   2.800   1.373
 5852TIP3    H241010   6.441   2.852   1.337
 5853TIP3   OH241011   7.049   2.831   1.716
 5853TIP3    H141012   7.020   2.889   1.643
 5853TIP3    H241013   7.146   2.827   1.705
 5854TIP3   OH241014   6.153   2.490   1.789
 5854TIP3    H141015   6.062   2.453   1.789
 5854TIP3    H241016   6.198   2.442   1.717
 5855TIP3   OH241017   6.445   1.947   1.331
 5855TIP3    H141018   6.400   2.034   1.338
 5855TIP3    H241019   6.371   1.887   1.320
 5856TIP3   OH241020   6.534   2.384   1.733
 5856TIP3    H141021   6.565   2.351   1.821
 5856TIP3    H241022   6.457   2.327   1.722
 5857TIP3   OH241023   6.836   2.306   1.690
 5857TIP3    H141024   6.749   2.267   1.708
 5857TIP3    H241025   6.886   2.279   1.770
 5858TIP3   OH241026   7.000   2.150   1.870
 5858TIP3    H141027   6.971   2.063   1.836
 5858TIP3    H241028   6.974   2.137   1.966
 5859TIP3   OH241029   5.940   2.301   1.767
 5859TIP3    H141030   5.942   2.213   1.725
 5859TIP3    H241031   5.970   2.279   1.859
 5860TIP3   OH241032   6.396   1.920   1.619
 5860TIP3    H141033   6.465   1.855   1.636
 5860TIP3    H241034   6.423   1.955   1.532
 5861TIP3   OH241035   6.461   2.078   1.852
 5861TIP3    H141036   6.437   2.037   1.767
 5861TIP3    H241037   6.382   2.130   1.876
 5862TIP3   OH241038   6.408   3.754   0.168
 5862TIP3    H141039   6.486   3.805   0.196
 5862TIP3    H241040   6.423   3.745   0.073
 5863TIP3   OH241041   5.775   3.234   0.091
 5863TIP3    H141042   5.868   3.246   0.121
 5863TIP3    H241043   5.789   3.201   0.001
 5864TIP3   OH241044   5.673   3.721   0.612
 5864TIP3    H141045   5.595   3.671   0.579
 5864TIP3    H241046   5.702   3.660   0.683
 5865TIP3   OH241047   5.716   3.576   0.826
 5865TIP3    H141048   5.679   3.490   0.799
 5865TIP3    H241049   5.670   3.590   0.910
 5866TIP3   OH241050   7.523   3.652   1.095
 5866TIP3    H141051   7.533   3.611   1.183
 5866TIP3    H241052   7.507   3.744   1.123
 5867TIP3   OH241053   7.442   3.576   1.426
 5867TIP3    H141054   7.390   3.511   1.374
 5867TIP3    H241055   7.455   3.524   1.508
 5868TIP3   OH241056   7.312   3.180   1.889
 5868TIP3    H141057   7.247   3.196   1.961
 5868TIP3    H241058   7.300   3.264   1.842
 5869TIP3   OH241059   7.405   3.003   0.398
 5869TIP3    H141060   7.490   3.049   0.412
 5869TIP3    H241061   7.404   2.939   0.472
 5870TIP3   OH241062   7.470   2.794   0.591
 5870TIP3    H141063   7.383   2.766   0.627
 5870TIP3    H241064   7.517   2.813   0.675
 5871TIP3   OH241065   7.469   3.064   1.106
 5871TIP3    H141066   7.522   3.014   1.043
 5871TIP3    H241067   7.488   3.158   1.081
 5872TIP3   OH241068   7.293   3.360   1.328
 5872TIP3    H141069   7.212   3.390   1.374
 5872TIP3    H241070   7.264   3.349   1.235
 5873TIP3   OH241071   7.465   2.798   0.219
 5873TIP3    H141072   7.388   2.815   0.163
 5873TIP3    H241073   7.468   2.881   0.272
 5874TIP3   OH241074   7.263   2.488   0.125
 5874TIP3    H141075   7.317   2.543   0.067
 5874TIP3    H241076   7.267   2.403   0.077
 5875TIP3   OH241077   7.244   2.692   0.691
 5875TIP3    H141078   7.218   2.604   0.656
 5875TIP3    H241079   7.202   2.689   0.780
 5876TIP3   OH241080   5.734   2.886   1.088
 5876TIP3    H141081   5.748   2.860   0.993
 5876TIP3    H241082   5.823   2.857   1.121
 5877TIP3   OH241083   7.336   2.857   1.654
 5877TIP3    H141084   7.398   2.781   1.647
 5877TIP3    H241085   7.390   2.931   1.618
 5878TIP3   OH241086   7.476   2.637   1.664
 5878TIP3    H141087   7.382   2.616   1.687
 5878TIP3    H241088   7.514   2.551   1.692
 5879TIP3   OH241089   7.237   2.260  -0.030
 5879TIP3    H141090   7.278   2.207   0.041
 5879TIP3    H241091   7.145   2.264  -0.001
 5880TIP3   OH241092   7.215   2.441   0.527
 5880TIP3    H141093   7.224   2.344   0.544
 5880TIP3    H241094   7.294   2.455   0.474
 5881TIP3   OH241095   7.232   2.494   1.061
 5881TIP3    H141096   7.322   2.461   1.039
 5881TIP3    H241097   7.238   2.490   1.158
 5882TIP3   OH241098   7.284   2.539   1.331
 5882TIP3    H141099   7.203   2.577   1.372
 5882TIP3    H241100   7.330   2.622   1.306
 5883TIP3   OH241101   5.718   2.373   1.655
 5883TIP3    H141102   5.804   2.366   1.702
 5883TIP3    H241103   5.668   2.303   1.701
 5884TIP3   OH241104   7.239   2.171   0.504
 5884TIP3    H141105   7.272   2.122   0.582
 5884TIP3    H241106   7.180   2.103   0.464
 5885TIP3   OH241107   5.841   2.214   1.017
 5885TIP3    H141108   5.886   2.128   0.997
 5885TIP3    H241109   5.916   2.276   1.023
 5886TIP3   OH241110   5.679   2.538   1.080
 5886TIP3    H141111   5.728   2.496   1.006
 5886TIP3    H241112   5.735   2.615   1.095
 5887TIP3   OH241113   7.399   2.127   1.711
 5887TIP3    H141114   7.327   2.162   1.654
 5887TIP3    H241115   7.435   2.062   1.648
 5888TIP3   OH241116   7.403   2.120   0.167
 5888TIP3    H141117   7.446   2.108   0.080
 5888TIP3    H241118   7.480   2.149   0.220
 5889TIP3   OH241119   5.670   2.118   0.447
 5889TIP3    H141120   5.585   2.158   0.468
 5889TIP3    H241121   5.709   2.180   0.382
 5890TIP3   OH241122   7.176   3.660   0.707
 5890TIP3    H141123   7.240   3.654   0.634
 5890TIP3    H241124   7.218   3.722   0.769
 5891TIP3   OH241125   5.704   2.009   1.298
 5891TIP3    H141126   5.635   1.998   1.367
 5891TIP3    H241127   5.671   2.082   1.244
 5892TIP3   OH241128   5.916   3.333   1.751
 5892TIP3    H141129   5.872   3.255   1.713
 5892TIP3    H241130   5.846   3.397   1.762
 5893TIP3   OH241131   6.199   3.470   1.358
 5893TIP3    H141132   6.199   3.567   1.339
 5893TIP3    H241133   6.295   3.454   1.356
 5894TIP3   OH241134   6.647   3.578   1.598
 5894TIP3    H141135   6.626   3.564   1.693
 5894TIP3    H241136   6.733   3.626   1.603
 5895TIP3   OH241137   6.885   3.719   1.597
 5895TIP3    H141138   6.969   3.678   1.571
 5895TIP3    H241139   6.908   3.762   1.683
 5896TIP3   OH241140   7.349   1.955   1.502
 5896TIP3    H141141   7.271   1.981   1.451
 5896TIP3    H241142   7.367   1.864   1.468
 5897TIP3   OH241143   5.900   3.764   1.329
 5897TIP3    H141144   5.875   3.687   1.274
 5897TIP3    H241145   5.962   3.727   1.395
 5898TIP3   OH241146   6.173   3.727   1.263
 5898TIP3    H141147   6.080   3.748   1.245
 5898TIP3    H241148   6.213   3.736   1.174
 5899TIP3   OH241149   6.682   3.694   1.154
 5899TIP3    H141150   6.619   3.728   1.087
 5899TIP3    H241151   6.678   3.764   1.223
 5900TIP3   OH241152   6.857   3.549   1.303
 5900TIP3    H141153   6.792   3.598   1.247
 5900TIP3    H241154   6.930   3.612   1.290
 5901TIP3   OH241155   7.127   3.716   1.262
 5901TIP3    H141156   7.138   3.808   1.232
 5901TIP3    H241157   7.169   3.667   1.189
 5902TIP3   OH241158   5.905   3.615   1.090
 5902TIP3    H141159   5.899   3.537   1.151
 5902TIP3    H241160   5.981   3.585   1.033
 5903TIP3   OH241161   6.109   3.535   0.930
 5903TIP3    H141162   6.092   3.440   0.941
 5903TIP3    H241163   6.202   3.539   0.963
 5904TIP3   OH241164   6.346   3.526   1.058
 5904TIP3    H141165   6.365   3.432   1.035
 5904TIP3    H241166   6.372   3.526   1.152
 5905TIP3   OH241167   6.661   2.050   0.913
 5905TIP3    H141168   6.571   2.025   0.944
 5905TIP3    H241169   6.676   1.982   0.845
 5906TIP3   OH241170   7.227   1.910   0.925
 5906TIP3    H141171   7.275   1.968   0.863
 5906TIP3    H241172   7.134   1.931   0.897
 5907TIP3   OH241173   7.343   2.040   0.722
 5907TIP3    H141174   7.409   1.972   0.694
 5907TIP3    H241175   7.404   2.116   0.741
 5908TIP3   OH241176   5.928   1.931   0.713
 5908TIP3    H141177   5.842   1.927   0.667
 5908TIP3    H241178   5.971   1.848   0.683
 5909TIP3   OH241179   5.803   1.937   0.256
 5909TIP3    H141180   5.863   2.001   0.211
 5909TIP3    H241181   5.764   1.991   0.328
 5910TIP3   OH241182   6.380   1.898   0.691
 5910TIP3    H141183   6.364   1.981   0.643
 5910TIP3    H241184   6.414   1.931   0.775
 5911TIP3   OH241185   6.980   1.971   0.837
 5911TIP3    H141186   6.952   1.992   0.746
 5911TIP3    H241187   6.918   1.897   0.857
 5912TIP3   OH241188   7.070   1.971   0.415
 5912TIP3    H141189   6.983   2.015   0.408
 5912TIP3    H241190   7.043   1.883   0.446
 5913TIP3   OH241191   5.817   3.557   0.342
 5913TIP3    H141192   5.723   3.544   0.320
 5913TIP3    H241193   5.823   3.652   0.325
 5914TIP3   OH241194   5.979   2.099   0.139
 5914TIP3    H141195   6.054   2.062   0.089
 5914TIP3    H241196   6.025   2.140   0.215
 5915TIP3   OH241197   6.518   2.156   0.338
 5915TIP3    H141198   6.525   2.116   0.427
 5915TIP3    H241199   6.533   2.248   0.369
 5916TIP3   OH241200   6.705   3.756   0.189
 5916TIP3    H141201   6.802   3.745   0.183
 5916TIP3    H241202   6.684   3.664   0.161
 5917TIP3   OH241203   7.336   3.601   0.492
 5917TIP3    H141204   7.344   3.527   0.430
 5917TIP3    H241205   7.326   3.679   0.432
 5918TIP3   OH241206   5.945   2.034   1.634
 5918TIP3    H141207   5.877   1.967   1.650
 5918TIP3    H241208   6.008   2.016   1.709
 5919TIP3   OH241209   6.121   1.952   1.836
 5919TIP3    H141210   6.206   1.923   1.801
 5919TIP3    H241211   6.088   1.866   1.871
 5920TIP3   OH241212   6.005   3.664   0.083
 5920TIP3    H141213   5.929   3.685   0.138
 5920TIP3    H241214   6.019   3.571   0.105
 5921TIP3   OH241215   6.961   1.886   1.821
 5921TIP3    H141216   6.983   1.816   1.884
 5921TIP3    H241217   7.047   1.885   1.771
 5922TIP3   OH241218   7.247   3.450   1.677
 5922TIP3    H141219   7.205   3.500   1.605
 5922TIP3    H241220   7.232   3.505   1.756
 5923TIP3   OH241221   7.566   2.538   0.565
 5923TIP3    H141222   7.539   2.630   0.582
 5923TIP3    H241223   7.522   2.525   0.479
 5924TIP3   OH241224   7.651   2.805   0.801
 5924TIP3    H141225   7.672   2.710   0.808
 5924TIP3    H241226   7.739   2.844   0.789
 5925TIP3   OH241227   7.660   3.158   0.407
 5925TIP3    H141228   7.649   3.177   0.311
 5925TIP3    H241229   7.594   3.218   0.443
 5926TIP3   OH241230   7.560   3.008   1.358
 5926TIP3    H141231   7.514   3.015   1.271
 5926TIP3    H241232   7.578   2.913   1.365
 5927TIP3   OH241233   7.526   3.312   1.049
 5927TIP3    H141234   7.617   3.322   1.015
 5927TIP3    H241235   7.511   3.393   1.097
 5928TIP3   OH241236   7.512   2.242   0.744
 5928TIP3    H141237   7.604   2.274   0.764
 5928TIP3    H241238   7.511   2.264   0.649
 5929TIP3   OH241239   7.587   2.310   0.246
 5929TIP3    H141240   7.631   2.348   0.168
 5929TIP3    H241241   7.559   2.388   0.296
 5930TIP3   OH241242   7.588   2.750   1.450
 5930TIP3    H141243   7.570   2.698   1.531
 5930TIP3    H241244   7.506   2.731   1.400
 5931TIP3   OH241245   7.671   3.641   1.700
 5931TIP3    H141246   7.626   3.633   1.785
 5931TIP3    H241247   7.612   3.580   1.649
 5932TIP3   OH241248   7.632   2.978   1.771
 5932TIP3    H141249   7.586   2.893   1.779
 5932TIP3    H241250   7.568   3.032   1.717
 5933TIP3   OH241251   7.622   3.226   0.098
 5933TIP3    H141252   7.720   3.211   0.102
 5933TIP3    H241253   7.613   3.215   0.001
 5934TIP3   OH241254   7.508   3.730   0.643
 5934TIP3    H141255   7.450   3.670   0.590
 5934TIP3    H241256   7.522   3.673   0.722
 5935TIP3   OH241257   7.545   3.556   0.842
 5935TIP3    H141258   7.471   3.493   0.846
 5935TIP3    H241259   7.538   3.598   0.931
 5936TIP3   OH241260   7.625   2.822   1.092
 5936TIP3    H141261   7.606   2.826   0.997
 5936TIP3    H241262   7.701   2.883   1.098
 5937TIP3   OH241263   7.523   2.385   1.705
 5937TIP3    H141264   7.618   2.376   1.684
 5937TIP3    H241265   7.491   2.293   1.710
 5938TIP3   OH241266   7.501   2.480   1.066
 5938TIP3    H141267   7.600   2.474   1.062
 5938TIP3    H241268   7.489   2.575   1.063
 5939TIP3   OH241269   7.507   2.194   0.477
 5939TIP3    H141270   7.412   2.183   0.461
 5939TIP3    H241271   7.543   2.219   0.389
 5940TIP3   OH241272   7.487   1.992   1.269
 5940TIP3    H141273   7.460   2.003   1.362
 5940TIP3    H241274   7.446   2.071   1.225
 5941TIP3   OH241275   7.662   3.545   0.383
 5941TIP3    H141276   7.581   3.497   0.358
 5941TIP3    H241277   7.648   3.627   0.332
 5942TIP3   OH241278   1.203   4.769   0.662
 5942TIP3    H141279   1.190   4.863   0.635
 5942TIP3    H241280   1.141   4.725   0.602
 5943TIP3   OH241281   1.069   4.655   1.012
 5943TIP3    H141282   1.071   4.601   1.093
 5943TIP3    H241283   1.000   4.613   0.958
 5944TIP3   OH241284   0.341   4.651   1.206
 5944TIP3    H141285   0.316   4.572   1.258
 5944TIP3    H241286   0.393   4.698   1.275
 5945TIP3   OH241287   1.419   4.976   0.883
 5945TIP3    H141288   1.382   4.912   0.946
 5945TIP3    H241289   1.449   5.046   0.942
 5946TIP3   OH241290   0.376   5.110   1.001
 5946TIP3    H141291   0.360   5.016   0.977
 5946TIP3    H241292   0.469   5.099   1.027
 5947TIP3   OH241293   0.119   4.506   0.570
 5947TIP3    H141294   0.087   4.596   0.557
 5947TIP3    H241295   0.035   4.458   0.586
 5948TIP3   OH241296   0.216   4.694   0.841
 5948TIP3    H141297   0.230   4.601   0.868
 5948TIP3    H241298   0.257   4.693   0.753
 5949TIP3   OH241299   1.164   5.520   0.850
 5949TIP3    H141300   1.221   5.455   0.803
 5949TIP3    H241301   1.148   5.467   0.930
 5950TIP3   OH241302   0.902   4.932   1.103
 5950TIP3    H141303   0.935   4.920   1.013
 5950TIP3    H241304   0.987   4.946   1.149
 5951TIP3   OH241305   1.774   4.084   1.106
 5951TIP3    H141306   1.780   4.141   1.186
 5951TIP3    H241307   1.837   4.127   1.046
 5952TIP3   OH241308   1.268   4.377   1.114
 5952TIP3    H141309   1.264   4.281   1.128
 5952TIP3    H241310   1.256   4.380   1.017
 5953TIP3   OH241311   0.548   4.187   0.824
 5953TIP3    H141312   0.568   4.261   0.763
 5953TIP3    H241313   0.507   4.128   0.755
 5954TIP3   OH241314   1.280   4.204   0.678
 5954TIP3    H141315   1.331   4.156   0.748
 5954TIP3    H241316   1.353   4.255   0.636
 5955TIP3   OH241317   0.260   4.432   0.881
 5955TIP3    H141318   0.295   4.374   0.951
 5955TIP3    H241319   0.289   4.384   0.801
 5956TIP3   OH241320   0.652   4.598   0.827
 5956TIP3    H141321   0.730   4.557   0.868
 5956TIP3    H241322   0.635   4.530   0.758
 5957TIP3   OH241323   1.780   4.223   1.358
 5957TIP3    H141324   1.748   4.311   1.330
 5957TIP3    H241325   1.796   4.240   1.452
 5958TIP3   OH241326   0.445   4.079   1.223
 5958TIP3    H141327   0.420   4.145   1.155
 5958TIP3    H241328   0.375   4.095   1.288
 5959TIP3   OH241329   1.135   5.015   0.568
 5959TIP3    H141330   1.130   5.023   0.470
 5959TIP3    H241331   1.106   5.104   0.595
 5960TIP3   OH241332   0.682   4.854   1.219
 5960TIP3    H141333   0.629   4.932   1.248
 5960TIP3    H241334   0.759   4.898   1.176
 5961TIP3   OH241335   1.468   4.121   0.866
 5961TIP3    H141336   1.439   4.111   0.959
 5961TIP3    H241337   1.556   4.158   0.875
 5962TIP3   OH241338   0.394   4.270   1.037
 5962TIP3    H141339   0.452   4.337   1.080
 5962TIP3    H241340   0.452   4.242   0.962
 5963TIP3   OH241341   0.554   5.071   1.316
 5963TIP3    H141342   0.562   5.164   1.290
 5963TIP3    H241343   0.461   5.071   1.349
 5964TIP3   OH241344   0.211   5.071   0.436
 5964TIP3    H141345   0.120   5.036   0.432
 5964TIP3    H241346   0.214   5.113   0.524
 5965TIP3   OH241347   1.494   5.183   1.072
 5965TIP3    H141348   1.399   5.200   1.094
 5965TIP3    H241349   1.515   5.269   1.033
 5966TIP3   OH241350   1.497   4.061   1.216
 5966TIP3    H141351   1.420   4.109   1.180
 5966TIP3    H241352   1.569   4.094   1.161
 5967TIP3   OH241353   0.795   3.839   0.932
 5967TIP3    H141354   0.764   3.750   0.950
 5967TIP3    H241355   0.728   3.890   0.985
 5968TIP3   OH241356   1.336   5.344   0.736
 5968TIP3    H141357   1.362   5.264   0.685
 5968TIP3    H241358   1.412   5.405   0.720
 5969TIP3   OH241359   1.428   5.127   0.586
 5969TIP3    H141360   1.413   5.064   0.513
 5969TIP3    H241361   1.417   5.066   0.661
 5970TIP3   OH241362   1.582   5.009   1.459
 5970TIP3    H141363   1.607   4.936   1.397
 5970TIP3    H241364   1.589   5.086   1.400
 5971TIP3   OH241365   1.042   4.701   0.414
 5971TIP3    H141366   0.987   4.782   0.407
 5971TIP3    H241367   1.126   4.728   0.370
 5972TIP3   OH241368   1.045   4.602   0.142
 5972TIP3    H141369   1.109   4.614   0.215
 5972TIP3    H241370   1.084   4.525   0.098
 5973TIP3   OH241371   1.807   4.662   1.255
 5973TIP3    H141372   1.740   4.733   1.251
 5973TIP3    H241373   1.864   4.691   1.180
 5974TIP3   OH241374   1.462   4.778   0.577
 5974TIP3    H141375   1.377   4.746   0.614
 5974TIP3    H241376   1.514   4.698   0.555
 5975TIP3   OH241377   1.402   4.552   1.433
 5975TIP3    H141378   1.380   4.641   1.465
 5975TIP3    H241379   1.341   4.547   1.357
 5976TIP3   OH241380   0.531   4.801   0.712
 5976TIP3    H141381   0.495   4.744   0.640
 5976TIP3    H241382   0.576   4.732   0.767
 5977TIP3   OH241383   0.707   5.111   0.986
 5977TIP3    H141384   0.708   5.082   0.893
 5977TIP3    H241385   0.771   5.050   1.027
 5978TIP3   OH241386   0.621   4.634   1.085
 5978TIP3    H141387   0.626   4.651   0.989
 5978TIP3    H241388   0.647   4.720   1.127
 5979TIP3   OH241389   1.238   5.234   1.155
 5979TIP3    H141390   1.190   5.289   1.219
 5979TIP3    H241391   1.198   5.147   1.175
 5980TIP3   OH241392   0.650   5.030   1.573
 5980TIP3    H141393   0.703   5.113   1.577
 5980TIP3    H241394   0.624   5.027   1.478
 5981TIP3   OH241395   1.287   4.673   0.311
 5981TIP3    H141396   1.374   4.655   0.352
 5981TIP3    H241397   1.319   4.714   0.229
 5982TIP3   OH241398   0.410   4.724   1.460
 5982TIP3    H141399   0.394   4.792   1.528
 5982TIP3    H241400   0.320   4.685   1.454
 5983TIP3   OH241401   1.043   5.264   0.657
 5983TIP3    H141402   1.085   5.311   0.729
 5983TIP3    H241403   1.018   5.334   0.596
 5984TIP3   OH241404   0.425   5.326   1.618
 5984TIP3    H141405   0.476   5.272   1.556
 5984TIP3    H241406   0.399   5.261   1.685
 5985TIP3   OH241407   1.675   3.797   0.323
 5985TIP3    H141408   1.585   3.804   0.285
 5985TIP3    H241409   1.710   3.885   0.300
 5986TIP3   OH241410   0.408   4.672   0.514
 5986TIP3    H141411   0.375   4.736   0.447
 5986TIP3    H241412   0.381   4.586   0.479
 5987TIP3   OH241413   1.747   5.242   0.091
 5987TIP3    H141414   1.790   5.323   0.124
 5987TIP3    H241415   1.826   5.182   0.096
 5988TIP3   OH241416   0.117   4.909   1.401
 5988TIP3    H141417   0.029   4.905   1.361
 5988TIP3    H241418   0.147   4.816   1.399
 5989TIP3   OH241419   0.116   5.257   1.006
 5989TIP3    H141420   0.188   5.191   0.999
 5989TIP3    H241421   0.125   5.282   1.100
 5990TIP3   OH241422   1.887   5.265   1.629
 5990TIP3    H141423   1.878   5.170   1.640
 5990TIP3    H241424   1.796   5.290   1.656
 5991TIP3   OH241425   1.023   5.218   1.392
 5991TIP3    H141426   0.971   5.255   1.467
 5991TIP3    H241427   0.991   5.127   1.398
 5992TIP3   OH241428   1.007   5.588   0.441
 5992TIP3    H141429   1.026   5.601   0.345
 5992TIP3    H241430   1.035   5.676   0.477
 5993TIP3   OH241431   0.381   5.467   0.675
 5993TIP3    H141432   0.382   5.424   0.764
 5993TIP3    H241433   0.296   5.433   0.641
 5994TIP3   OH241434   1.324   5.523   0.163
 5994TIP3    H141435   1.376   5.449   0.125
 5994TIP3    H241436   1.324   5.502   0.258
 5995TIP3   OH241437   1.280   5.519   0.453
 5995TIP3    H141438   1.184   5.524   0.464
 5995TIP3    H241439   1.301   5.437   0.499
 5996TIP3   OH241440   1.570   4.402   1.639
 5996TIP3    H141441   1.500   4.442   1.584
 5996TIP3    H241442   1.567   4.308   1.612
 5997TIP3   OH241443   0.307   5.082   1.435
 5997TIP3    H141444   0.317   5.036   1.521
 5997TIP3    H241445   0.226   5.033   1.404
 5998TIP3   OH241446   0.579   3.944   1.044
 5998TIP3    H141447   0.495   3.945   0.993
 5998TIP3    H241448   0.556   4.010   1.112
 5999TIP3   OH241449   1.046   3.860   1.384
 5999TIP3    H141450   1.085   3.817   1.463
 5999TIP3    H241451   0.950   3.862   1.403
 6000TIP3   OH241452   1.325   4.274   1.481
 6000TIP3    H141453   1.268   4.248   1.557
 6000TIP3    H241454   1.300   4.366   1.466
 6001TIP3   OH241455   1.415   4.777   0.101
 6001TIP3    H141456   1.429   4.772   0.005
 6001TIP3    H241457   1.507   4.788   0.131
 6002TIP3   OH241458   1.005   4.177   0.126
 6002TIP3    H141459   0.962   4.154   0.210
 6002TIP3    H241460   0.977   4.103   0.071
 6003TIP3   OH241461   0.576   4.393   1.172
 6003TIP3    H141462   0.513   4.418   1.243
 6003TIP3    H241463   0.593   4.484   1.137
 6004TIP3   OH241464   0.587   4.391   0.651
 6004TIP3    H141465   0.489   4.399   0.642
 6004TIP3    H241466   0.608   4.371   0.557
 6005TIP3   OH241467   1.117   4.486   0.544
 6005TIP3    H141468   1.083   4.563   0.494
 6005TIP3    H241469   1.184   4.452   0.481
 6006TIP3   OH241470   0.961   4.497   1.707
 6006TIP3    H141471   0.939   4.401   1.717
 6006TIP3    H241472   1.054   4.499   1.734
 6007TIP3   OH241473   1.242   4.426   0.833
 6007TIP3    H141474   1.223   4.509   0.786
 6007TIP3    H241475   1.231   4.362   0.759
 6008TIP3   OH241476   0.305   4.400   1.327
 6008TIP3    H141477   0.371   4.419   1.396
 6008TIP3    H241478   0.280   4.308   1.347
 6009TIP3   OH241479   0.686   4.186   0.067
 6009TIP3    H141480   0.636   4.146   0.141
 6009TIP3    H241481   0.646   4.273   0.050
 6010TIP3   OH241482   0.080   4.192   0.753
 6010TIP3    H141483   0.119   4.172   0.841
 6010TIP3    H241484   0.083   4.107   0.708
 6011TIP3   OH241485   0.162   4.229   0.325
 6011TIP3    H141486   0.215   4.261   0.248
 6011TIP3    H241487   0.138   4.313   0.366
 6012TIP3   OH241488   1.127   4.547   1.260
 6012TIP3    H141489   1.191   4.482   1.223
 6012TIP3    H241490   1.078   4.492   1.326
 6013TIP3   OH241491   0.828   4.174   0.760
 6013TIP3    H141492   0.740   4.173   0.803
 6013TIP3    H241493   0.887   4.127   0.822
 6014TIP3   OH241494   0.325   4.348   0.633
 6014TIP3    H141495   0.239   4.381   0.597
 6014TIP3    H241496   0.326   4.253   0.613
 6015TIP3   OH241497   0.628   4.325   0.385
 6015TIP3    H141498   0.722   4.345   0.400
 6015TIP3    H241499   0.605   4.383   0.308
 6016TIP3   OH241500   1.274   4.093   1.067
 6016TIP3    H141501   1.210   4.074   1.139
 6016TIP3    H241502   1.251   4.030   0.997
 6017TIP3   OH241503   0.564   4.453   0.157
 6017TIP3    H141504   0.492   4.456   0.093
 6017TIP3    H241505   0.638   4.494   0.108
 6018TIP3   OH241506   1.585   5.652   1.740
 6018TIP3    H141507   1.617   5.686   1.654
 6018TIP3    H241508   1.663   5.677   1.795
 6019TIP3   OH241509   0.355   4.909   1.668
 6019TIP3    H141510   0.450   4.920   1.684
 6019TIP3    H241511   0.319   4.910   1.757
 6020TIP3   OH241512   0.890   4.437   0.913
 6020TIP3    H141513   0.983   4.416   0.892
 6020TIP3    H241514   0.862   4.360   0.965
 6021TIP3   OH241515   0.435   4.081   0.614
 6021TIP3    H141516   0.406   3.988   0.627
 6021TIP3    H241517   0.469   4.081   0.524
 6022TIP3   OH241518   0.797   4.261   1.197
 6022TIP3    H141519   0.716   4.317   1.191
 6022TIP3    H241520   0.862   4.324   1.231
 6023TIP3   OH241521   0.872   4.914   0.389
 6023TIP3    H141522   0.802   4.860   0.346
 6023TIP3    H241523   0.828   4.931   0.476
 6024TIP3   OH241524   1.614   4.857   1.250
 6024TIP3    H141525   1.659   4.918   1.186
 6024TIP3    H241526   1.529   4.846   1.204
 6025TIP3   OH241527   1.275   4.204   0.166
 6025TIP3    H141528   1.186   4.219   0.130
 6025TIP3    H241529   1.279   4.272   0.235
 6026TIP3   OH241530   0.983   4.944   1.531
 6026TIP3    H141531   0.993   4.868   1.592
 6026TIP3    H241532   0.951   5.011   1.592
 6027TIP3   OH241533   1.296   4.394   0.364
 6027TIP3    H141534   1.370   4.378   0.425
 6027TIP3    H241535   1.334   4.469   0.313
 6028TIP3   OH241536   0.434   4.855   0.952
 6028TIP3    H141537   0.452   4.845   0.855
 6028TIP3    H241538   0.426   4.764   0.983
 6029TIP3   OH241539   1.101   5.027   0.285
 6029TIP3    H141540   1.066   5.116   0.297
 6029TIP3    H241541   1.025   4.973   0.316
 6030TIP3   OH241542   0.153   4.641   1.438
 6030TIP3    H141543   0.151   4.628   1.535
 6030TIP3    H241544   0.056   4.631   1.421
 6031TIP3   OH241545   0.720   4.624   1.675
 6031TIP3    H141546   0.714   4.626   1.578
 6031TIP3    H241547   0.811   4.586   1.686
 6032TIP3   OH241548   1.264   5.168   1.519
 6032TIP3    H141549   1.188   5.199   1.466
 6032TIP3    H241550   1.246   5.212   1.605
 6033TIP3   OH241551   1.826   4.380   0.327
 6033TIP3    H141552   1.736   4.385   0.288
 6033TIP3    H241553   1.839   4.476   0.336
 6034TIP3   OH241554   1.822   4.981   1.580
 6034TIP3    H141555   1.734   5.003   1.542
 6034TIP3    H241556   1.878   4.979   1.499
 6035TIP3   OH241557   1.644   5.283   0.339
 6035TIP3    H141558   1.610   5.207   0.387
 6035TIP3    H241559   1.661   5.249   0.249
 6036TIP3   OH241560   1.357   4.767   1.076
 6036TIP3    H141561   1.272   4.732   1.044
 6036TIP3    H241562   1.417   4.706   1.029
 6037TIP3   OH241563   0.622   5.202   0.696
 6037TIP3    H141564   0.642   5.287   0.654
 6037TIP3    H241565   0.527   5.196   0.685
 6038TIP3   OH241566   0.189   4.660   0.150
 6038TIP3    H141567   0.269   4.701   0.188
 6038TIP3    H241568   0.118   4.713   0.188
 6039TIP3   OH241569   0.731   4.953   0.615
 6039TIP3    H141570   0.701   5.044   0.635
 6039TIP3    H241571   0.663   4.899   0.661
 6040TIP3   OH241572   0.830   5.411   1.232
 6040TIP3    H141573   0.886   5.490   1.220
 6040TIP3    H241574   0.892   5.352   1.280
 6041TIP3   OH241575   0.625   5.480   0.581
 6041TIP3    H141576   0.531   5.461   0.604
 6041TIP3    H241577   0.646   5.541   0.655
 6042TIP3   OH241578   1.139   4.977   1.225
 6042TIP3    H141579   1.119   4.986   1.320
 6042TIP3    H241580   1.206   4.908   1.226
 6043TIP3   OH241581   1.383   5.114   0.185
 6043TIP3    H141582   1.420   5.060   0.259
 6043TIP3    H241583   1.306   5.058   0.169
 6044TIP3   OH241584   1.417   5.419   1.513
 6044TIP3    H141585   1.334   5.375   1.485
 6044TIP3    H241586   1.443   5.467   1.432
 6045TIP3   OH241587   1.865   5.537   0.209
 6045TIP3    H141588   1.950   5.586   0.219
 6045TIP3    H241589   1.806   5.594   0.266
 6046TIP3   OH241590   0.226   4.155   1.415
 6046TIP3    H141591   0.166   4.213   1.467
 6046TIP3    H241592   0.220   4.073   1.467
 6047TIP3   OH241593   1.469   4.954   0.381
 6047TIP3    H141594   1.445   4.882   0.445
 6047TIP3    H241595   1.566   4.945   0.384
 6048TIP3   OH241596   0.216   5.323   1.257
 6048TIP3    H141597   0.289   5.263   1.278
 6048TIP3    H241598   0.194   5.357   1.345
 6049TIP3   OH241599   0.678   5.133   0.246
 6049TIP3    H141600   0.745   5.081   0.294
 6049TIP3    H241601   0.693   5.224   0.278
 6050TIP3   OH241602   0.319   4.850   0.318
 6050TIP3    H141603   0.279   4.925   0.368
 6050TIP3    H241604   0.385   4.899   0.266
 6051TIP3   OH241605   1.128   4.126   1.341
 6051TIP3    H141606   1.207   4.141   1.396
 6051TIP3    H241607   1.101   4.035   1.365
 6052TIP3   OH241608   1.181   4.105   0.457
 6052TIP3    H141609   1.232   4.161   0.398
 6052TIP3    H241610   1.206   4.145   0.543
 6053TIP3   OH241611   0.981   5.281   0.332
 6053TIP3    H141612   0.895   5.321   0.312
 6053TIP3    H241613   1.038   5.314   0.259
 6054TIP3   OH241614   0.894   4.262   0.505
 6054TIP3    H141615   0.953   4.335   0.530
 6054TIP3    H241616   0.858   4.234   0.592
 6055TIP3   OH241617   1.018   4.384   1.440
 6055TIP3    H141618   1.027   4.410   1.534
 6055TIP3    H241619   1.032   4.287   1.441
 6056TIP3   OH241620   0.983   3.950   0.562
 6056TIP3    H141621   0.959   4.016   0.630
 6056TIP3    H241622   1.063   3.995   0.525
 6057TIP3   OH241623   0.707   5.385   0.347
 6057TIP3    H141624   0.723   5.454   0.280
 6057TIP3    H241625   0.648   5.428   0.413
 6058TIP3   OH241626   0.565   4.067   0.291
 6058TIP3    H141627   0.556   4.159   0.322
 6058TIP3    H241628   0.660   4.053   0.312
 6059TIP3   OH241629   1.563   4.144   1.517
 6059TIP3    H141630   1.471   4.172   1.493
 6059TIP3    H241631   1.610   4.161   1.433
 6060TIP3   OH241632   1.474   4.555   0.930
 6060TIP3    H141633   1.399   4.496   0.908
 6060TIP3    H241634   1.540   4.494   0.971
 6061TIP3   OH241635   0.422   5.142   0.140
 6061TIP3    H141636   0.475   5.168   0.217
 6061TIP3    H241637   0.490   5.085   0.097
 6062TIP3   OH241638   0.274   4.378   0.136
 6062TIP3    H141639   0.228   4.462   0.123
 6062TIP3    H241640   0.261   4.332   0.050
 6063TIP3   OH241641   1.536   5.458   1.066
 6063TIP3    H141642   1.542   5.532   1.002
 6063TIP3    H241643   1.632   5.441   1.073
 6064TIP3   OH241644   0.323   3.887   0.962
 6064TIP3    H141645   0.241   3.938   0.946
 6064TIP3    H241646   0.301   3.826   1.037
 6065TIP3   OH241647   0.184   5.280   0.609
 6065TIP3    H141648   0.094   5.309   0.587
 6065TIP3    H241649   0.227   5.303   0.523
 6066TIP3   OH241650   0.185   5.543   1.752
 6066TIP3    H141651   0.237   5.545   1.835
 6066TIP3    H241652   0.199   5.451   1.724
 6067TIP3   OH241653   0.570   5.432   1.850
 6067TIP3    H141654   0.665   5.420   1.866
 6067TIP3    H241655   0.564   5.407   1.756
 6068TIP3   OH241656   1.090   5.376   0.092
 6068TIP3    H141657   1.045   5.313   0.031
 6068TIP3    H241658   1.140   5.429   0.028
 6069TIP3   OH241659   1.178   5.296   1.748
 6069TIP3    H141660   1.155   5.206   1.776
 6069TIP3    H241661   1.253   5.316   1.808
 6070TIP3   OH241662   1.493   5.328   0.024
 6070TIP3    H141663   1.453   5.265   0.087
 6070TIP3    H241664   1.584   5.292   0.023
 6071TIP3   OH241665   0.129   4.935   1.895
 6071TIP3    H141666   0.181   4.855   1.878
 6071TIP3    H241667   0.046   4.907   1.846
 6072TIP3   OH241668   0.589   4.957   0.021
 6072TIP3    H141669   0.638   4.927   0.099
 6072TIP3    H241670   0.602   4.882  -0.041
 6073TIP3   OH241671   0.784   4.880   1.742
 6073TIP3    H141672   0.744   4.937   1.672
 6073TIP3    H241673   0.761   4.789   1.713
 6074TIP3   OH241674   1.332   4.900   1.491
 6074TIP3    H141675   1.423   4.937   1.492
 6074TIP3    H241676   1.284   4.983   1.509
 6075TIP3   OH241677   0.206   4.613   1.755
 6075TIP3    H141678   0.273   4.541   1.745
 6075TIP3    H241679   0.222   4.637   1.847
 6076TIP3   OH241680   0.688   4.761   0.244
 6076TIP3    H141681   0.631   4.707   0.301
 6076TIP3    H241682   0.722   4.693   0.183
 6077TIP3   OH241683   0.565   4.511   1.414
 6077TIP3    H141684   0.515   4.589   1.447
 6077TIP3    H241685   0.646   4.554   1.381
 6078TIP3   OH241686   0.782   4.574   0.055
 6078TIP3    H141687   0.812   4.589  -0.037
 6078TIP3    H241688   0.870   4.574   0.100
 6079TIP3   OH241689   1.134   4.787   1.789
 6079TIP3    H141690   1.215   4.738   1.804
 6079TIP3    H241691   1.075   4.757   1.860
 6080TIP3   OH241692   1.715   4.849   8.468
 6080TIP3    H141693   1.645   4.868   8.403
 6080TIP3    H241694   1.719   4.929   8.521
 6081TIP3   OH241695   0.677   4.296   1.565
 6081TIP3    H141696   0.694   4.229   1.496
 6081TIP3    H241697   0.660   4.376   1.511
 6082TIP3   OH241698   0.691   4.087   1.362
 6082TIP3    H141699   0.742   4.138   1.295
 6082TIP3    H241700   0.602   4.090   1.324
 6083TIP3   OH241701   0.813   4.669   1.382
 6083TIP3    H141702   0.902   4.666   1.344
 6083TIP3    H241703   0.777   4.750   1.341
 6084TIP3   OH241704   1.246   4.424   1.849
 6084TIP3    H141705   1.259   4.347   1.908
 6084TIP3    H241706   1.332   4.470   1.858
 6085TIP3   OH241707   1.428   4.735   1.692
 6085TIP3    H141708   1.376   4.782   1.624
 6085TIP3    H241709   1.519   4.740   1.656
 6086TIP3   OH241710   0.395   4.423   1.735
 6086TIP3    H141711   0.382   4.326   1.744
 6086TIP3    H241712   0.486   4.430   1.703
 6087TIP3   OH241713   0.781   3.839   1.346
 6087TIP3    H141714   0.745   3.929   1.361
 6087TIP3    H241715   0.703   3.791   1.316
 6088TIP3   OH241716   0.888   4.244   1.742
 6088TIP3    H141717   0.860   4.216   1.831
 6088TIP3    H241718   0.805   4.249   1.690
 6089TIP3   OH241719   1.144   4.199   1.670
 6089TIP3    H141720   1.053   4.195   1.704
 6089TIP3    H241721   1.194   4.153   1.741
 6090TIP3   OH241722   1.310   4.050   1.843
 6090TIP3    H141723   1.306   3.952   1.849
 6090TIP3    H241724   1.289   4.079   1.935
 6091TIP3   OH241725   0.292   4.177   1.778
 6091TIP3    H141726   0.300   4.095   1.727
 6091TIP3    H241727   0.285   4.141   1.870
 6092TIP3   OH241728   0.785   3.831   1.651
 6092TIP3    H141729   0.843   3.753   1.650
 6092TIP3    H241730   0.774   3.847   1.556
 6093TIP3   OH241731   0.746   3.914   1.922
 6093TIP3    H141732   0.764   3.873   1.833
 6093TIP3    H241733   0.702   3.995   1.894
 6094TIP3   OH241734   0.758   5.636   0.254
 6094TIP3    H141735   0.832   5.668   0.199
 6094TIP3    H241736   0.679   5.658   0.201
 6095TIP3   OH241737   0.177   5.078   0.060
 6095TIP3    H141738   0.260   5.089   0.113
 6095TIP3    H241739   0.204   5.118  -0.024
 6096TIP3   OH241740   0.035   5.624   0.591
 6096TIP3    H141741  -0.061   5.636   0.609
 6096TIP3    H241742   0.064   5.578   0.672
 6097TIP3   OH241743   0.131   5.483   0.819
 6097TIP3    H141744   0.117   5.390   0.793
 6097TIP3    H241745   0.156   5.471   0.912
 6098TIP3   OH241746   1.822   5.504   1.082
 6098TIP3    H141747   1.836   5.518   1.177
 6098TIP3    H241748   1.877   5.572   1.041
 6099TIP3   OH241749   1.785   5.459   1.378
 6099TIP3    H141750   1.745   5.382   1.332
 6099TIP3    H241751   1.821   5.416   1.457
 6100TIP3   OH241752   1.652   5.028   1.866
 6100TIP3    H141753   1.569   5.034   1.915
 6100TIP3    H241754   1.692   5.114   1.892
 6101TIP3   OH241755   1.752   4.901   0.382
 6101TIP3    H141756   1.841   4.933   0.407
 6101TIP3    H241757   1.732   4.838   0.455
 6102TIP3   OH241758   1.799   4.721   0.619
 6102TIP3    H141759   1.717   4.674   0.646
 6102TIP3    H241760   1.855   4.706   0.698
 6103TIP3   OH241761   1.772   4.972   1.074
 6103TIP3    H141762   1.836   4.900   1.057
 6103TIP3    H241763   1.825   5.051   1.051
 6104TIP3   OH241764   1.640   5.242   1.305
 6104TIP3    H141765   1.561   5.279   1.350
 6104TIP3    H241766   1.602   5.209   1.220
 6105TIP3   OH241767   1.843   4.663   0.215
 6105TIP3    H141768   1.752   4.626   0.217
 6105TIP3    H241769   1.830   4.741   0.273
 6106TIP3   OH241770   1.602   4.397   0.094
 6106TIP3    H141771   1.682   4.435   0.053
 6106TIP3    H241772   1.609   4.304   0.064
 6107TIP3   OH241773   1.620   4.534   0.698
 6107TIP3    H141774   1.562   4.471   0.653
 6107TIP3    H241775   1.571   4.553   0.780
 6108TIP3   OH241776   0.144   4.802   1.092
 6108TIP3    H141777   0.182   4.786   1.004
 6108TIP3    H241778   0.217   4.769   1.148
 6109TIP3   OH241779   1.700   4.736   1.621
 6109TIP3    H141780   1.746   4.654   1.649
 6109TIP3    H241781   1.769   4.805   1.609
 6110TIP3   OH241782   1.819   4.485   1.673
 6110TIP3    H141783   1.727   4.450   1.666
 6110TIP3    H241784   1.869   4.402   1.688
 6111TIP3   OH241785   1.589   4.147  -0.006
 6111TIP3    H141786   1.629   4.088   0.061
 6111TIP3    H241787   1.495   4.149   0.019
 6112TIP3   OH241788   1.490   4.310   0.543
 6112TIP3    H141789   1.536   4.224   0.538
 6112TIP3    H241790   1.551   4.366   0.491
 6113TIP3   OH241791   1.649   4.372   1.059
 6113TIP3    H141792   1.747   4.383   1.067
 6113TIP3    H241793   1.622   4.376   1.152
 6114TIP3   OH241794   1.637   4.446   1.333
 6114TIP3    H141795   1.562   4.472   1.390
 6114TIP3    H241796   1.679   4.533   1.314
 6115TIP3   OH241797   0.076   4.230   1.628
 6115TIP3    H141798   0.153   4.266   1.676
 6115TIP3    H241799   0.088   4.135   1.645
 6116TIP3   OH241800   1.893   3.862   1.867
 6116TIP3    H141801   1.910   3.794   1.800
 6116TIP3    H241802   1.876   3.939   1.808
 6117TIP3   OH241803   1.607   4.025   0.530
 6117TIP3    H141804   1.653   3.984   0.606
 6117TIP3    H241805   1.568   3.950   0.482
 6118TIP3   OH241806   0.186   4.110   0.983
 6118TIP3    H141807   0.218   4.044   1.046
 6118TIP3    H241808   0.229   4.190   1.019
 6119TIP3   OH241809   0.057   4.431   1.070
 6119TIP3    H141810   0.112   4.432   0.989
 6119TIP3    H241811   0.109   4.485   1.131
 6120TIP3   OH241812   1.807   4.047   1.692
 6120TIP3    H141813   1.733   4.091   1.741
 6120TIP3    H241814   1.762   4.021   1.611
 6121TIP3   OH241815   1.786   4.050   0.170
 6121TIP3    H141816   1.843   4.009   0.103
 6121TIP3    H241817   1.802   4.144   0.156
 6122TIP3   OH241818   0.062   4.002   0.467
 6122TIP3    H141819  -0.024   4.041   0.491
 6122TIP3    H241820   0.094   4.065   0.399
 6123TIP3   OH241821   1.517   5.538   0.705
 6123TIP3    H141822   1.587   5.526   0.637
 6123TIP3    H241823   1.557   5.601   0.767
 6124TIP3   OH241824   0.044   3.863   1.299
 6124TIP3    H141825  -0.038   3.818   1.272
 6124TIP3    H241826   0.014   3.953   1.317
 6125TIP3   OH241827   0.241   5.195   1.790
 6125TIP3    H141828   0.216   5.215   1.698
 6125TIP3    H241829   0.162   5.151   1.825
 6126TIP3   OH241830   0.578   5.364   1.346
 6126TIP3    H141831   0.553   5.458   1.334
 6126TIP3    H241832   0.672   5.370   1.324
 6127TIP3   OH241833   0.992   5.527   1.624
 6127TIP3    H141834   0.931   5.450   1.636
 6127TIP3    H241835   1.075   5.485   1.652
 6128TIP3   OH241836   1.262   5.686   1.549
 6128TIP3    H141837   1.275   5.592   1.531
 6128TIP3    H241838   1.248   5.689   1.645
 6129TIP3   OH241839   1.707   3.837   1.491
 6129TIP3    H141840   1.639   3.884   1.442
 6129TIP3    H241841   1.691   3.744   1.465
 6130TIP3   OH241842   0.305   5.665   1.369
 6130TIP3    H141843   0.219   5.702   1.341
 6130TIP3    H241844   0.292   5.662   1.465
 6131TIP3   OH241845   0.534   5.616   1.243
 6131TIP3    H141846   0.441   5.625   1.277
 6131TIP3    H241847   0.539   5.690   1.181
 6132TIP3   OH241848   1.022   5.592   1.158
 6132TIP3    H141849   0.998   5.648   1.083
 6132TIP3    H241850   1.030   5.657   1.232
 6133TIP3   OH241851   1.201   5.463   1.313
 6133TIP3    H141852   1.129   5.497   1.257
 6133TIP3    H241853   1.275   5.521   1.286
 6134TIP3   OH241854   1.494   5.580   1.302
 6134TIP3    H141855   1.494   5.670   1.268
 6134TIP3    H241856   1.508   5.527   1.220
 6135TIP3   OH241857   0.268   5.523   1.057
 6135TIP3    H141858   0.229   5.469   1.129
 6135TIP3    H241859   0.337   5.462   1.022
 6136TIP3   OH241860   0.447   5.378   0.929
 6136TIP3    H141861   0.449   5.284   0.957
 6136TIP3    H241862   0.537   5.405   0.958
 6137TIP3   OH241863   0.706   5.417   0.991
 6137TIP3    H141864   0.733   5.323   0.997
 6137TIP3    H241865   0.732   5.445   1.081
 6138TIP3   OH241866   1.007   3.992   0.866
 6138TIP3    H141867   0.923   3.948   0.889
 6138TIP3    H241868   1.069   3.919   0.873
 6139TIP3   OH241869   1.570   3.791   0.916
 6139TIP3    H141870   1.643   3.840   0.871
 6139TIP3    H241871   1.493   3.843   0.884
 6140TIP3   OH241872   1.740   3.900   0.737
 6140TIP3    H141873   1.808   3.853   0.683
 6140TIP3    H241874   1.779   3.990   0.744
 6141TIP3   OH241875   0.327   3.846   0.655
 6141TIP3    H141876   0.237   3.868   0.623
 6141TIP3    H241877   0.355   3.791   0.580
 6142TIP3   OH241878   0.209   3.813   0.306
 6142TIP3    H141879   0.237   3.867   0.229
 6142TIP3    H241880   0.137   3.869   0.342
 6143TIP3   OH241881   0.710   3.803   0.678
 6143TIP3    H141882   0.782   3.847   0.631
 6143TIP3    H241883   0.726   3.834   0.770
 6144TIP3   OH241884   1.295   3.845   0.838
 6144TIP3    H141885   1.277   3.872   0.747
 6144TIP3    H241886   1.258   3.755   0.841
 6145TIP3   OH241887   1.409   3.870   0.368
 6145TIP3    H141888   1.319   3.905   0.378
 6145TIP3    H241889   1.400   3.780   0.404
 6146TIP3   OH241890   0.206   5.443   0.366
 6146TIP3    H141891   0.111   5.423   0.356
 6146TIP3    H241892   0.206   5.537   0.338
 6147TIP3   OH241893   0.275   3.984   0.116
 6147TIP3    H141894   0.337   3.988   0.042
 6147TIP3    H241895   0.320   4.044   0.177
 6148TIP3   OH241896   0.831   4.052   0.346
 6148TIP3    H141897   0.878   4.002   0.415
 6148TIP3    H241898   0.853   4.142   0.381
 6149TIP3   OH241899   1.051   5.621   0.182
 6149TIP3    H141900   1.137   5.633   0.137
 6149TIP3    H241901   1.043   5.524   0.167
 6150TIP3   OH241902   1.679   5.483   0.503
 6150TIP3    H141903   1.669   5.406   0.441
 6150TIP3    H241904   1.656   5.554   0.441
 6151TIP3   OH241905   0.246   3.884   1.606
 6151TIP3    H141906   0.197   3.801   1.620
 6151TIP3    H241907   0.330   3.862   1.649
 6152TIP3   OH241908   0.468   3.832   1.859
 6152TIP3    H141909   0.560   3.800   1.857
 6152TIP3    H241910   0.422   3.747   1.877
 6153TIP3   OH241911   0.456   5.547   0.148
 6153TIP3    H141912   0.382   5.581   0.203
 6153TIP3    H241913   0.408   5.476   0.103
 6154TIP3   OH241914   1.314   3.782   1.853
 6154TIP3    H141915   1.330   3.735   1.935
 6154TIP3    H241916   1.400   3.766   1.807
 6155TIP3   OH241917   1.637   5.376   1.652
 6155TIP3    H141918   1.558   5.369   1.592
 6155TIP3    H241919   1.627   5.469   1.680
 6156TIP3   OH241920   3.080   4.773   0.690
 6156TIP3    H141921   3.069   4.870   0.699
 6156TIP3    H241922   3.001   4.753   0.637
 6157TIP3   OH241923   2.956   4.671   1.026
 6157TIP3    H141924   2.980   4.634   1.113
 6157TIP3    H241925   2.891   4.607   0.992
 6158TIP3   OH241926   2.172   4.657   1.172
 6158TIP3    H141927   2.171   4.583   1.235
 6158TIP3    H241928   2.242   4.713   1.209
 6159TIP3   OH241929   3.292   4.975   0.877
 6159TIP3    H141930   3.275   4.911   0.947
 6159TIP3    H241931   3.316   5.053   0.929
 6160TIP3   OH241932   2.288   5.123   1.005
 6160TIP3    H141933   2.257   5.033   0.980
 6160TIP3    H241934   2.383   5.104   1.002
 6161TIP3   OH241935   1.956   4.437   0.580
 6161TIP3    H141936   1.919   4.523   0.606
 6161TIP3    H241937   1.904   4.417   0.500
 6162TIP3   OH241938   2.005   4.700   0.820
 6162TIP3    H141939   2.048   4.614   0.843
 6162TIP3    H241940   2.078   4.759   0.798
 6163TIP3   OH241941   3.046   5.520   0.850
 6163TIP3    H141942   3.114   5.463   0.807
 6163TIP3    H241943   3.029   5.465   0.928
 6164TIP3   OH241944   2.769   4.921   1.130
 6164TIP3    H141945   2.798   4.898   1.040
 6164TIP3    H241946   2.855   4.945   1.170
 6165TIP3   OH241947   3.640   4.083   1.114
 6165TIP3    H141948   3.660   4.136   1.193
 6165TIP3    H241949   3.719   4.101   1.059
 6166TIP3   OH241950   3.144   4.370   1.121
 6166TIP3    H141951   3.154   4.274   1.137
 6166TIP3    H241952   3.154   4.367   1.023
 6167TIP3   OH241953   2.414   4.170   0.805
 6167TIP3    H141954   2.454   4.251   0.764
 6167TIP3    H241955   2.420   4.108   0.728
 6168TIP3   OH241956   3.204   4.181   0.659
 6168TIP3    H141957   3.244   4.160   0.745
 6168TIP3    H241958   3.247   4.266   0.641
 6169TIP3   OH241959   2.085   4.443   0.890
 6169TIP3    H141960   2.149   4.403   0.952
 6169TIP3    H241961   2.104   4.394   0.808
 6170TIP3   OH241962   2.596   4.610   0.845
 6170TIP3    H141963   2.690   4.621   0.824
 6170TIP3    H241964   2.571   4.531   0.793
 6171TIP3   OH241965   3.668   4.223   1.371
 6171TIP3    H141966   3.629   4.307   1.338
 6171TIP3    H241967   3.705   4.253   1.456
 6172TIP3   OH241968   2.322   4.077   1.211
 6172TIP3    H141969   2.288   4.140   1.145
 6172TIP3    H241970   2.262   4.097   1.287
 6173TIP3   OH241971   3.016   5.010   0.583
 6173TIP3    H141972   3.001   5.013   0.487
 6173TIP3    H241973   3.000   5.104   0.607
 6174TIP3   OH241974   2.533   4.838   1.226
 6174TIP3    H141975   2.477   4.912   1.258
 6174TIP3    H241976   2.613   4.883   1.190
 6175TIP3   OH241977   3.395   4.211   0.898
 6175TIP3    H141978   3.455   4.135   0.886
 6175TIP3    H241979   3.441   4.263   0.968
 6176TIP3   OH241980   2.275   4.268   1.022
 6176TIP3    H141981   2.333   4.333   1.069
 6176TIP3    H241982   2.333   4.245   0.946
 6177TIP3   OH241983   2.418   5.071   1.314
 6177TIP3    H141984   2.407   5.162   1.282
 6177TIP3    H241985   2.335   5.061   1.366
 6178TIP3   OH241986   1.998   5.003   0.418
 6178TIP3    H141987   2.002   5.060   0.338
 6178TIP3    H241988   2.008   5.069   0.489
 6179TIP3   OH241989   3.376   5.178   1.074
 6179TIP3    H141990   3.284   5.200   1.101
 6179TIP3    H241991   3.396   5.258   1.022
 6180TIP3   OH241992   3.374   4.035   1.190
 6180TIP3    H141993   3.327   4.091   1.125
 6180TIP3    H241994   3.463   4.035   1.149
 6181TIP3   OH241995   2.655   3.802   0.961
 6181TIP3    H141996   2.627   3.710   0.977
 6181TIP3    H241997   2.577   3.849   0.998
 6182TIP3   OH241998   3.223   5.344   0.741
 6182TIP3    H141999   3.238   5.267   0.682
 6182TIP3    H242000   3.297   5.404   0.715
 6183TIP3   OH242001   3.300   5.134   0.585
 6183TIP3    H142002   3.295   5.066   0.516
 6183TIP3    H242003   3.289   5.080   0.665
 6184TIP3   OH242004   3.476   5.011   1.464
 6184TIP3    H142005   3.496   4.934   1.406
 6184TIP3    H242006   3.490   5.084   1.401
 6185TIP3   OH242007   2.935   4.685   0.438
 6185TIP3    H142008   2.863   4.751   0.427
 6185TIP3    H242009   3.011   4.727   0.392
 6186TIP3   OH242010   2.931   4.610   0.143
 6186TIP3    H142011   3.000   4.653   0.199
 6186TIP3    H242012   2.975   4.527   0.120
 6187TIP3   OH242013   3.683   4.647   1.238
 6187TIP3    H142014   3.629   4.725   1.260
 6187TIP3    H242015   3.745   4.691   1.176
 6188TIP3   OH242016   3.317   4.742   0.553
 6188TIP3    H142017   3.236   4.755   0.609
 6188TIP3    H242018   3.370   4.679   0.609
 6189TIP3   OH242019   3.284   4.561   1.458
 6189TIP3    H142020   3.298   4.621   1.535
 6189TIP3    H242021   3.223   4.616   1.406
 6190TIP3   OH242022   2.434   4.765   0.709
 6190TIP3    H142023   2.415   4.724   0.622
 6190TIP3    H242024   2.497   4.703   0.750
 6191TIP3   OH242025   2.581   5.096   0.988
 6191TIP3    H142026   2.602   5.077   0.896
 6191TIP3    H242027   2.649   5.049   1.040
 6192TIP3   OH242028   2.470   4.631   1.079
 6192TIP3    H142029   2.512   4.642   0.991
 6192TIP3    H242030   2.502   4.710   1.128
 6193TIP3   OH242031   3.126   5.236   1.143
 6193TIP3    H142032   3.080   5.299   1.200
 6193TIP3    H242033   3.104   5.151   1.186
 6194TIP3   OH242034   2.577   5.099   1.539
 6194TIP3    H142035   2.505   5.147   1.588
 6194TIP3    H242036   2.538   5.093   1.450
 6195TIP3   OH242037   3.175   4.674   0.319
 6195TIP3    H142038   3.230   4.701   0.395
 6195TIP3    H242039   3.223   4.713   0.243
 6196TIP3   OH242040   2.278   4.719   1.451
 6196TIP3    H142041   2.293   4.785   1.520
 6196TIP3    H242042   2.197   4.677   1.483
 6197TIP3   OH242043   2.970   5.254   0.672
 6197TIP3    H142044   3.005   5.314   0.739
 6197TIP3    H242045   2.900   5.305   0.632
 6198TIP3   OH242046   2.402   5.269   1.633
 6198TIP3    H142047   2.385   5.309   1.546
 6198TIP3    H242048   2.310   5.255   1.665
 6199TIP3   OH242049   3.572   3.795   0.330
 6199TIP3    H142050   3.475   3.805   0.347
 6199TIP3    H242051   3.591   3.878   0.283
 6200TIP3   OH242052   2.334   4.667   0.465
 6200TIP3    H142053   2.289   4.750   0.439
 6200TIP3    H242054   2.272   4.600   0.437
 6201TIP3   OH242055   3.635   5.213   0.103
 6201TIP3    H142056   3.660   5.307   0.096
 6201TIP3    H242057   3.725   5.176   0.116
 6202TIP3   OH242058   1.971   4.944   1.365
 6202TIP3    H142059   1.941   4.929   1.274
 6202TIP3    H242060   2.002   4.853   1.388
 6203TIP3   OH242061   1.949   5.200   1.043
 6203TIP3    H142062   2.043   5.191   1.063
 6203TIP3    H242063   1.930   5.280   1.096
 6204TIP3   OH242064   3.749   5.258   1.605
 6204TIP3    H142065   3.741   5.162   1.610
 6204TIP3    H242066   3.663   5.280   1.649
 6205TIP3   OH242067   2.826   5.217   1.522
 6205TIP3    H142068   2.847   5.297   1.573
 6205TIP3    H242069   2.734   5.195   1.545
 6206TIP3   OH242070   2.906   5.586   0.453
 6206TIP3    H142071   2.909   5.613   0.359
 6206TIP3    H242072   2.897   5.673   0.498
 6207TIP3   OH242073   2.257   5.472   0.665
 6207TIP3    H142074   2.292   5.438   0.752
 6207TIP3    H242075   2.171   5.425   0.662
 6208TIP3   OH242076   3.195   5.542   0.176
 6208TIP3    H142077   3.249   5.467   0.145
 6208TIP3    H242078   3.198   5.532   0.273
 6209TIP3   OH242079   3.163   5.512   0.442
 6209TIP3    H142080   3.066   5.524   0.454
 6209TIP3    H242081   3.174   5.427   0.487
 6210TIP3   OH242082   3.446   4.402   1.659
 6210TIP3    H142083   3.382   4.447   1.601
 6210TIP3    H242084   3.440   4.309   1.627
 6211TIP3   OH242085   2.197   5.073   1.459
 6211TIP3    H142086   2.196   5.030   1.548
 6211TIP3    H242087   2.109   5.045   1.426
 6212TIP3   OH242088   2.447   3.914   1.058
 6212TIP3    H142089   2.361   3.892   1.016
 6212TIP3    H242090   2.416   3.976   1.128
 6213TIP3   OH242091   2.939   3.859   1.379
 6213TIP3    H142092   2.968   3.816   1.462
 6213TIP3    H242093   2.841   3.866   1.389
 6214TIP3   OH242094   3.196   4.302   1.456
 6214TIP3    H142095   3.147   4.288   1.541
 6214TIP3    H242096   3.234   4.392   1.467
 6215TIP3   OH242097   3.304   4.762   0.105
 6215TIP3    H142098   3.292   4.803   0.018
 6215TIP3    H242099   3.394   4.793   0.123
 6216TIP3   OH242100   2.901   4.171   0.132
 6216TIP3    H142101   2.852   4.176   0.215
 6216TIP3    H242102   2.880   4.080   0.107
 6217TIP3   OH242103   2.459   4.383   1.171
 6217TIP3    H142104   2.390   4.403   1.237
 6217TIP3    H242105   2.473   4.474   1.136
 6218TIP3   OH242106   2.474   4.396   0.680
 6218TIP3    H142107   2.397   4.452   0.659
 6218TIP3    H242108   2.498   4.364   0.590
 6219TIP3   OH242109   3.011   4.443   0.521
 6219TIP3    H142110   2.987   4.535   0.493
 6219TIP3    H242111   3.077   4.419   0.453
 6220TIP3   OH242112   2.895   4.510   1.700
 6220TIP3    H142113   2.861   4.428   1.739
 6220TIP3    H242114   2.965   4.525   1.766
 6221TIP3   OH242115   3.105   4.443   0.833
 6221TIP3    H142116   3.104   4.535   0.801
 6221TIP3    H242117   3.096   4.395   0.748
 6222TIP3   OH242118   2.206   4.414   1.318
 6222TIP3    H142119   2.251   4.453   1.395
 6222TIP3    H242120   2.180   4.326   1.351
 6223TIP3   OH242121   2.562   4.193   0.075
 6223TIP3    H142122   2.515   4.134   0.138
 6223TIP3    H242123   2.535   4.282   0.107
 6224TIP3   OH242124   1.869   4.135   0.764
 6224TIP3    H142125   1.936   4.128   0.834
 6224TIP3    H242126   1.917   4.116   0.681
 6225TIP3   OH242127   2.020   4.197   0.298
 6225TIP3    H142128   2.063   4.218   0.214
 6225TIP3    H242129   1.955   4.272   0.301
 6226TIP3   OH242130   3.023   4.563   1.265
 6226TIP3    H142131   3.093   4.499   1.241
 6226TIP3    H242132   2.979   4.525   1.344
 6227TIP3   OH242133   2.735   4.163   0.782
 6227TIP3    H142134   2.643   4.143   0.806
 6227TIP3    H242135   2.786   4.105   0.843
 6228TIP3   OH242136   2.156   4.240   0.646
 6228TIP3    H142137   2.077   4.276   0.599
 6228TIP3    H242138   2.223   4.247   0.576
 6229TIP3   OH242139   2.498   4.319   0.423
 6229TIP3    H142140   2.595   4.332   0.425
 6229TIP3    H242141   2.476   4.370   0.342
 6230TIP3   OH242142   3.144   4.103   1.065
 6230TIP3    H142143   3.124   4.053   1.146
 6230TIP3    H242144   3.126   4.036   0.997
 6231TIP3   OH242145   2.468   4.424   0.171
 6231TIP3    H142146   2.387   4.421   0.117
 6231TIP3    H242147   2.525   4.487   0.121
 6232TIP3   OH242148   3.469   5.660   1.720
 6232TIP3    H142149   3.509   5.682   1.634
 6232TIP3    H242150   3.549   5.672   1.777
 6233TIP3   OH242151   2.207   4.940   1.700
 6233TIP3    H142152   2.276   4.929   1.769
 6233TIP3    H242153   2.129   4.901   1.747
 6234TIP3   OH242154   2.836   4.413   0.989
 6234TIP3    H142155   2.903   4.405   0.918
 6234TIP3    H242156   2.756   4.373   0.950
 6235TIP3   OH242157   2.369   4.000   0.609
 6235TIP3    H142158   2.401   3.908   0.621
 6235TIP3    H242159   2.389   4.013   0.515
 6236TIP3   OH242160   2.689   4.263   1.231
 6236TIP3    H142161   2.611   4.304   1.187
 6236TIP3    H242162   2.678   4.301   1.320
 6237TIP3   OH242163   2.762   4.891   0.406
 6237TIP3    H142164   2.687   4.848   0.360
 6237TIP3    H242165   2.717   4.925   0.487
 6238TIP3   OH242166   3.495   4.843   1.255
 6238TIP3    H142167   3.541   4.907   1.196
 6238TIP3    H242168   3.418   4.824   1.198
 6239TIP3   OH242169   3.160   4.179   0.206
 6239TIP3    H142170   3.072   4.186   0.165
 6239TIP3    H242171   3.174   4.272   0.236
 6240TIP3   OH242172   2.867   4.949   1.496
 6240TIP3    H142173   2.847   4.928   1.589
 6240TIP3    H242174   2.845   5.044   1.495
 6241TIP3   OH242175   3.228   4.399   0.350
 6241TIP3    H142176   3.284   4.380   0.428
 6241TIP3    H242177   3.249   4.491   0.329
 6242TIP3   OH242178   2.285   4.861   0.934
 6242TIP3    H142179   2.338   4.851   0.852
 6242TIP3    H242180   2.310   4.784   0.987
 6243TIP3   OH242181   2.962   5.026   0.298
 6243TIP3    H142182   2.923   5.112   0.322
 6243TIP3    H242183   2.891   4.965   0.329
 6244TIP3   OH242184   1.987   4.687   1.483
 6244TIP3    H142185   1.962   4.637   1.563
 6244TIP3    H242186   1.924   4.650   1.418
 6245TIP3   OH242187   2.653   4.659   1.657
 6245TIP3    H142188   2.617   4.604   1.586
 6245TIP3    H242189   2.739   4.615   1.676
 6246TIP3   OH242190   3.163   5.177   1.503
 6246TIP3    H142191   3.081   5.190   1.454
 6246TIP3    H242192   3.138   5.214   1.590
 6247TIP3   OH242193   3.697   4.382   0.344
 6247TIP3    H142194   3.631   4.379   0.273
 6247TIP3    H242195   3.721   4.476   0.338
 6248TIP3   OH242196   3.715   4.968   1.611
 6248TIP3    H142197   3.633   5.002   1.570
 6248TIP3    H242198   3.777   4.959   1.535
 6249TIP3   OH242199   3.508   5.271   0.347
 6249TIP3    H142200   3.481   5.189   0.390
 6249TIP3    H242201   3.547   5.244   0.262
 6250TIP3   OH242202   3.252   4.763   1.075
 6250TIP3    H142203   3.162   4.757   1.038
 6250TIP3    H242204   3.298   4.692   1.025
 6251TIP3   OH242205   2.503   5.203   0.675
 6251TIP3    H142206   2.516   5.299   0.661
 6251TIP3    H242207   2.415   5.192   0.637
 6252TIP3   OH242208   2.101   4.701   0.102
 6252TIP3    H142209   2.137   4.756   0.174
 6252TIP3    H242210   2.010   4.683   0.135
 6253TIP3   OH242211   2.629   4.972   0.633
 6253TIP3    H142212   2.587   5.060   0.646
 6253TIP3    H242213   2.567   4.911   0.677
 6254TIP3   OH242214   2.697   5.382   1.317
 6254TIP3    H142215   2.762   5.450   1.289
 6254TIP3    H242216   2.753   5.330   1.378
 6255TIP3   OH242217   2.519   5.454   0.571
 6255TIP3    H142218   2.424   5.464   0.592
 6255TIP3    H242219   2.553   5.533   0.619
 6256TIP3   OH242220   3.007   4.972   1.250
 6256TIP3    H142221   2.978   4.944   1.340
 6256TIP3    H242222   3.068   4.902   1.222
 6257TIP3   OH242223   3.277   5.099   0.174
 6257TIP3    H142224   3.300   5.049   0.255
 6257TIP3    H242225   3.186   5.069   0.165
 6258TIP3   OH242226   3.350   5.408   1.479
 6258TIP3    H142227   3.265   5.360   1.477
 6258TIP3    H242228   3.339   5.471   1.404
 6259TIP3   OH242229   3.721   5.514   0.186
 6259TIP3    H142230   3.770   5.564   0.118
 6259TIP3    H242231   3.660   5.582   0.221
 6260TIP3   OH242232   2.154   4.153   1.415
 6260TIP3    H142233   2.077   4.204   1.448
 6260TIP3    H242234   2.146   4.075   1.473
 6261TIP3   OH242235   3.360   4.942   0.388
 6261TIP3    H142236   3.334   4.874   0.454
 6261TIP3    H242237   3.457   4.940   0.399
 6262TIP3   OH242238   2.101   5.331   1.258
 6262TIP3    H142239   2.171   5.266   1.274
 6262TIP3    H242240   2.102   5.378   1.343
 6263TIP3   OH242241   2.557   5.144   0.262
 6263TIP3    H142242   2.630   5.111   0.317
 6263TIP3    H242243   2.569   5.242   0.271
 6264TIP3   OH242244   2.209   4.871   0.296
 6264TIP3    H142245   2.141   4.916   0.352
 6264TIP3    H242246   2.258   4.947   0.257
 6265TIP3   OH242247   3.002   4.157   1.315
 6265TIP3    H142248   3.074   4.191   1.372
 6265TIP3    H242249   2.982   4.071   1.356
 6266TIP3   OH242250   3.063   4.090   0.447
 6266TIP3    H142251   3.110   4.125   0.369
 6266TIP3    H242252   3.131   4.100   0.518
 6267TIP3   OH242253   2.862   5.276   0.356
 6267TIP3    H142254   2.808   5.352   0.380
 6267TIP3    H242255   2.910   5.309   0.277
 6268TIP3   OH242256   2.759   4.296   0.524
 6268TIP3    H142257   2.847   4.340   0.518
 6268TIP3    H242258   2.765   4.250   0.610
 6269TIP3   OH242259   2.891   4.409   1.444
 6269TIP3    H142260   2.851   4.474   1.506
 6269TIP3    H242261   2.926   4.342   1.506
 6270TIP3   OH242262   2.889   3.958   0.594
 6270TIP3    H142263   2.839   4.027   0.640
 6270TIP3    H242264   2.958   4.012   0.546
 6271TIP3   OH242265   2.578   5.413   0.299
 6271TIP3    H142266   2.622   5.496   0.273
 6271TIP3    H242267   2.549   5.436   0.390
 6272TIP3   OH242268   2.442   4.078   0.292
 6272TIP3    H142269   2.447   4.166   0.335
 6272TIP3    H242270   2.530   4.042   0.316
 6273TIP3   OH242271   3.445   4.156   1.524
 6273TIP3    H142272   3.356   4.160   1.484
 6273TIP3    H242273   3.503   4.159   1.445
 6274TIP3   OH242274   3.360   4.532   0.925
 6274TIP3    H142275   3.285   4.470   0.925
 6274TIP3    H242276   3.426   4.485   0.980
 6275TIP3   OH242277   2.296   5.131   0.160
 6275TIP3    H142278   2.372   5.155   0.216
 6275TIP3    H242279   2.341   5.070   0.099
 6276TIP3   OH242280   2.121   4.409   0.083
 6276TIP3    H142281   2.145   4.502   0.087
 6276TIP3    H242282   2.032   4.414   0.043
 6277TIP3   OH242283   3.431   5.458   1.071
 6277TIP3    H142284   3.436   5.531   1.005
 6277TIP3    H242285   3.526   5.440   1.081
 6278TIP3   OH242286   2.203   3.859   0.964
 6278TIP3    H142287   2.172   3.812   0.883
 6278TIP3    H242288   2.188   3.786   1.028
 6279TIP3   OH242289   2.073   5.270   0.591
 6279TIP3    H142290   1.989   5.318   0.591
 6279TIP3    H242291   2.108   5.303   0.507
 6280TIP3   OH242292   1.988   5.541   1.718
 6280TIP3    H142293   2.068   5.532   1.774
 6280TIP3    H242294   1.968   5.447   1.698
 6281TIP3   OH242295   2.495   5.406   1.941
 6281TIP3    H142296   2.588   5.389   1.965
 6281TIP3    H242297   2.493   5.387   1.846
 6282TIP3   OH242298   2.965   5.377   0.117
 6282TIP3    H142299   2.907   5.325   0.058
 6282TIP3    H242300   3.031   5.408   0.053
 6283TIP3   OH242301   3.109   5.301   1.740
 6283TIP3    H142302   3.092   5.217   1.788
 6283TIP3    H242303   3.195   5.328   1.779
 6284TIP3   OH242304   3.362   5.349   0.028
 6284TIP3    H142305   3.344   5.269   0.083
 6284TIP3    H242306   3.458   5.342   0.016
 6285TIP3   OH242307   1.962   4.890   1.786
 6285TIP3    H142308   1.927   4.800   1.793
 6285TIP3    H242309   1.906   4.929   1.716
 6286TIP3   OH242310   2.441   4.915   0.050
 6286TIP3    H142311   2.506   4.901   0.121
 6286TIP3    H242312   2.496   4.903  -0.030
 6287TIP3   OH242313   2.664   4.922   1.718
 6287TIP3    H142314   2.638   4.975   1.639
 6287TIP3    H242315   2.657   4.828   1.686
 6288TIP3   OH242316   3.228   4.906   1.513
 6288TIP3    H142317   3.319   4.946   1.513
 6288TIP3    H242318   3.178   4.990   1.510
 6289TIP3   OH242319   2.111   4.624   1.773
 6289TIP3    H142320   2.153   4.552   1.825
 6289TIP3    H242321   2.044   4.650   1.838
 6290TIP3   OH242322   2.573   4.762   0.263
 6290TIP3    H142323   2.491   4.717   0.286
 6290TIP3    H242324   2.611   4.702   0.196
 6291TIP3   OH242325   2.451   4.522   1.439
 6291TIP3    H142326   2.393   4.593   1.472
 6291TIP3    H242327   2.516   4.575   1.390
 6292TIP3   OH242328   2.676   4.585   0.051
 6292TIP3    H142329   2.717   4.622  -0.029
 6292TIP3    H242330   2.757   4.577   0.107
 6293TIP3   OH242331   3.006   4.800   1.835
 6293TIP3    H142332   3.058   4.749   1.771
 6293TIP3    H242333   2.964   4.729   1.887
 6294TIP3   OH242334   3.572   4.843   8.505
 6294TIP3    H142335   3.531   4.866   8.420
 6294TIP3    H242336   3.608   4.927   8.534
 6295TIP3   OH242337   2.557   4.283   1.552
 6295TIP3    H142338   2.536   4.202   1.500
 6295TIP3    H242339   2.497   4.351   1.515
 6296TIP3   OH242340   2.536   4.086   1.365
 6296TIP3    H142341   2.591   4.131   1.297
 6296TIP3    H242342   2.449   4.081   1.322
 6297TIP3   OH242343   2.700   4.669   1.356
 6297TIP3    H142344   2.785   4.709   1.334
 6297TIP3    H242345   2.638   4.740   1.327
 6298TIP3   OH242346   3.162   4.409   1.843
 6298TIP3    H142347   3.154   4.329   1.899
 6298TIP3    H242348   3.256   4.412   1.819
 6299TIP3   OH242349   3.293   4.712   1.688
 6299TIP3    H142350   3.271   4.787   1.628
 6299TIP3    H242351   3.391   4.720   1.690
 6300TIP3   OH242352   2.399   4.358   1.770
 6300TIP3    H142353   2.309   4.320   1.783
 6300TIP3    H242354   2.439   4.301   1.702
 6301TIP3   OH242355   2.668   3.850   1.337
 6301TIP3    H142356   2.621   3.932   1.361
 6301TIP3    H242357   2.594   3.792   1.314
 6302TIP3   OH242358   2.781   4.249   1.741
 6302TIP3    H142359   2.736   4.233   1.825
 6302TIP3    H242360   2.704   4.248   1.680
 6303TIP3   OH242361   3.036   4.190   1.663
 6303TIP3    H142362   2.943   4.188   1.693
 6303TIP3    H242363   3.079   4.139   1.736
 6304TIP3   OH242364   3.183   4.026   1.840
 6304TIP3    H142365   3.185   3.937   1.881
 6304TIP3    H242366   3.172   4.079   1.923
 6305TIP3   OH242367   2.185   4.179   1.786
 6305TIP3    H142368   2.164   4.102   1.731
 6305TIP3    H242369   2.155   4.148   1.875
 6306TIP3   OH242370   2.633   3.816   1.619
 6306TIP3    H142371   2.709   3.762   1.647
 6306TIP3    H242372   2.638   3.804   1.523
 6307TIP3   OH242373   2.594   3.891   1.878
 6307TIP3    H142374   2.619   3.887   1.784
 6307TIP3    H242375   2.607   3.986   1.900
 6308TIP3   OH242376   2.633   5.674   0.152
 6308TIP3    H142377   2.712   5.713   0.191
 6308TIP3    H242378   2.667   5.638   0.068
 6309TIP3   OH242379   1.979   5.107   0.105
 6309TIP3    H142380   2.075   5.118   0.109
 6309TIP3    H242381   1.970   5.063   0.019
 6310TIP3   OH242382   1.890   5.594   0.622
 6310TIP3    H142383   1.807   5.549   0.593
 6310TIP3    H242384   1.913   5.541   0.702
 6311TIP3   OH242385   1.976   5.439   0.825
 6311TIP3    H142386   1.927   5.363   0.862
 6311TIP3    H242387   2.036   5.462   0.899
 6312TIP3   OH242388   3.712   5.500   1.067
 6312TIP3    H142389   3.743   5.505   1.159
 6312TIP3    H242390   3.740   5.586   1.035
 6313TIP3   OH242391   3.678   5.451   1.384
 6313TIP3    H142392   3.641   5.374   1.335
 6313TIP3    H242393   3.702   5.405   1.467
 6314TIP3   OH242394   3.537   5.077   1.876
 6314TIP3    H142395   3.453   5.077   1.926
 6314TIP3    H242396   3.584   5.152   1.918
 6315TIP3   OH242397   3.641   4.889   0.396
 6315TIP3    H142398   3.724   4.940   0.410
 6315TIP3    H242399   3.645   4.826   0.471
 6316TIP3   OH242400   3.685   4.687   0.597
 6316TIP3    H142401   3.604   4.657   0.645
 6316TIP3    H242402   3.746   4.706   0.672
 6317TIP3   OH242403   3.644   4.973   1.087
 6317TIP3    H142404   3.714   4.913   1.055
 6317TIP3    H242405   3.689   5.060   1.083
 6318TIP3   OH242406   3.521   5.244   1.304
 6318TIP3    H142407   3.458   5.296   1.357
 6318TIP3    H242408   3.468   5.220   1.224
 6319TIP3   OH242409   3.693   4.669   0.218
 6319TIP3    H142410   3.626   4.687   0.150
 6319TIP3    H242411   3.676   4.739   0.283
 6320TIP3   OH242412   3.492   4.404   0.099
 6320TIP3    H142413   3.566   4.457   0.064
 6320TIP3    H242414   3.513   4.319   0.055
 6321TIP3   OH242415   3.469   4.565   0.683
 6321TIP3    H142416   3.452   4.476   0.648
 6321TIP3    H242417   3.448   4.552   0.778
 6322TIP3   OH242418   1.959   4.777   1.075
 6322TIP3    H142419   1.960   4.747   0.981
 6322TIP3    H242420   2.049   4.747   1.102
 6323TIP3   OH242421   3.559   4.745   1.635
 6323TIP3    H142422   3.621   4.669   1.642
 6323TIP3    H242423   3.619   4.824   1.634
 6324TIP3   OH242424   3.703   4.513   1.631
 6324TIP3    H142425   3.618   4.465   1.635
 6324TIP3    H242426   3.755   4.481   1.707
 6325TIP3   OH242427   3.485   4.152  -0.006
 6325TIP3    H142428   3.537   4.091   0.050
 6325TIP3    H242429   3.395   4.146   0.031
 6326TIP3   OH242430   3.423   4.329   0.530
 6326TIP3    H142431   3.443   4.235   0.555
 6326TIP3    H242432   3.462   4.327   0.442
 6327TIP3   OH242433   3.522   4.377   1.075
 6327TIP3    H142434   3.621   4.383   1.080
 6327TIP3    H242435   3.502   4.386   1.171
 6328TIP3   OH242436   3.520   4.445   1.343
 6328TIP3    H142437   3.436   4.471   1.386
 6328TIP3    H242438   3.559   4.530   1.313
 6329TIP3   OH242439   1.966   4.254   1.654
 6329TIP3    H142440   2.038   4.270   1.719
 6329TIP3    H242441   1.935   4.166   1.680
 6330TIP3   OH242442   3.770   3.838   1.863
 6330TIP3    H142443   3.819   3.790   1.794
 6330TIP3    H242444   3.734   3.911   1.807
 6331TIP3   OH242445   3.483   4.059   0.536
 6331TIP3    H142446   3.530   4.010   0.607
 6331TIP3    H242447   3.445   3.987   0.483
 6332TIP3   OH242448   2.068   4.107   0.957
 6332TIP3    H142449   2.088   4.026   1.008
 6332TIP3    H242450   2.125   4.174   1.001
 6333TIP3   OH242451   1.912   4.415   1.085
 6333TIP3    H142452   1.963   4.400   1.003
 6333TIP3    H242453   1.959   4.493   1.118
 6334TIP3   OH242454   3.647   4.012   1.712
 6334TIP3    H142455   3.578   4.077   1.740
 6334TIP3    H242456   3.648   4.020   1.615
 6335TIP3   OH242457   3.675   4.038   0.156
 6335TIP3    H142458   3.722   3.970   0.107
 6335TIP3    H242459   3.748   4.102   0.168
 6336TIP3   OH242460   1.902   4.058   0.499
 6336TIP3    H142461   1.806   4.055   0.485
 6336TIP3    H242462   1.930   4.121   0.429
 6337TIP3   OH242463   3.392   5.535   0.688
 6337TIP3    H142464   3.463   5.519   0.623
 6337TIP3    H242465   3.434   5.592   0.754
 6338TIP3   OH242466   1.913   3.898   1.311
 6338TIP3    H142467   1.848   3.865   1.375
 6338TIP3    H242468   1.864   3.964   1.259
 6339TIP3   OH242469   2.156   5.231   1.741
 6339TIP3    H142470   2.070   5.249   1.698
 6339TIP3    H242471   2.141   5.144   1.780
 6340TIP3   OH242472   2.431   5.360   1.362
 6340TIP3    H142473   2.429   5.450   1.322
 6340TIP3    H242474   2.527   5.345   1.367
 6341TIP3   OH242475   2.846   5.484   1.613
 6341TIP3    H142476   2.852   5.474   1.710
 6341TIP3    H242477   2.935   5.522   1.595
 6342TIP3   OH242478   3.069   5.634   1.578
 6342TIP3    H142479   3.138   5.615   1.512
 6342TIP3    H242480   3.120   5.664   1.656
 6343TIP3   OH242481   3.588   3.848   1.478
 6343TIP3    H142482   3.498   3.875   1.457
 6343TIP3    H242483   3.593   3.758   1.439
 6344TIP3   OH242484   2.171   5.668   1.353
 6344TIP3    H142485   2.089   5.708   1.319
 6344TIP3    H242486   2.168   5.694   1.446
 6345TIP3   OH242487   2.395   5.598   1.235
 6345TIP3    H142488   2.306   5.619   1.274
 6345TIP3    H242489   2.396   5.659   1.159
 6346TIP3   OH242490   2.877   5.585   1.169
 6346TIP3    H142491   2.797   5.625   1.131
 6346TIP3    H242492   2.901   5.653   1.235
 6347TIP3   OH242493   3.089   5.452   1.305
 6347TIP3    H142494   3.029   5.502   1.247
 6347TIP3    H242495   3.172   5.501   1.286
 6348TIP3   OH242496   3.338   5.586   1.285
 6348TIP3    H142497   3.357   5.681   1.280
 6348TIP3    H242498   3.370   5.553   1.198
 6349TIP3   OH242499   2.134   5.494   1.036
 6349TIP3    H142500   2.113   5.433   1.111
 6349TIP3    H242501   2.222   5.460   1.007
 6350TIP3   OH242502   2.349   5.390   0.907
 6350TIP3    H142503   2.335   5.296   0.933
 6350TIP3    H242504   2.434   5.406   0.955
 6351TIP3   OH242505   2.572   5.406   1.043
 6351TIP3    H142506   2.615   5.318   1.048
 6351TIP3    H242507   2.588   5.443   1.132
 6352TIP3   OH242508   2.865   3.954   0.934
 6352TIP3    H142509   2.788   3.893   0.941
 6352TIP3    H242510   2.929   3.905   0.882
 6353TIP3   OH242511   3.444   3.800   0.904
 6353TIP3    H142512   3.508   3.858   0.857
 6353TIP3    H242513   3.358   3.831   0.869
 6354TIP3   OH242514   3.611   3.921   0.731
 6354TIP3    H142515   3.667   3.852   0.688
 6354TIP3    H242516   3.679   3.990   0.750
 6355TIP3   OH242517   2.150   3.835   0.697
 6355TIP3    H142518   2.074   3.819   0.638
 6355TIP3    H242519   2.199   3.749   0.684
 6356TIP3   OH242520   2.070   3.824   0.291
 6356TIP3    H142521   2.102   3.881   0.218
 6356TIP3    H242522   1.994   3.875   0.324
 6357TIP3   OH242523   2.585   3.806   0.689
 6357TIP3    H142524   2.676   3.795   0.655
 6357TIP3    H242525   2.601   3.819   0.784
 6358TIP3   OH242526   3.196   3.852   0.803
 6358TIP3    H142527   3.160   3.850   0.713
 6358TIP3    H242528   3.147   3.776   0.843
 6359TIP3   OH242529   3.328   3.836   0.403
 6359TIP3    H142530   3.255   3.865   0.347
 6359TIP3    H242531   3.288   3.759   0.447
 6360TIP3   OH242532   2.045   5.453   0.390
 6360TIP3    H142533   1.958   5.456   0.345
 6360TIP3    H242534   2.066   5.547   0.393
 6361TIP3   OH242535   2.202   3.964   0.113
 6361TIP3    H142536   2.287   3.918   0.114
 6361TIP3    H242537   2.220   4.043   0.166
 6362TIP3   OH242538   2.724   4.077   0.364
 6362TIP3    H142539   2.749   4.018   0.437
 6362TIP3    H242540   2.749   4.163   0.404
 6363TIP3   OH242541   2.938   5.631   0.194
 6363TIP3    H142542   3.029   5.637   0.157
 6363TIP3    H242543   2.928   5.534   0.182
 6364TIP3   OH242544   3.572   5.476   0.501
 6364TIP3    H142545   3.552   5.402   0.438
 6364TIP3    H242546   3.572   5.551   0.437
 6365TIP3   OH242547   2.142   3.908   1.639
 6365TIP3    H142548   2.094   3.823   1.642
 6365TIP3    H242549   2.216   3.892   1.701
 6366TIP3   OH242550   2.336   3.816   1.835
 6366TIP3    H142551   2.428   3.839   1.811
 6366TIP3    H242552   2.350   3.721   1.853
 6367TIP3   OH242553   2.179   5.491   0.096
 6367TIP3    H142554   2.194   5.535   0.179
 6367TIP3    H242555   2.257   5.437   0.085
 6368TIP3   OH242556   3.528   5.386   1.674
 6368TIP3    H142557   3.454   5.389   1.609
 6368TIP3    H242558   3.532   5.478   1.704
 6369TIP3   OH242559   4.972   4.782   0.673
 6369TIP3    H142560   4.954   4.879   0.671
 6369TIP3    H242561   4.891   4.748   0.635
 6370TIP3   OH242562   4.855   4.642   1.013
 6370TIP3    H142563   4.842   4.609   1.104
 6370TIP3    H242564   4.773   4.618   0.966
 6371TIP3   OH242565   4.065   4.670   1.179
 6371TIP3    H142566   4.059   4.593   1.239
 6371TIP3    H242567   4.140   4.716   1.219
 6372TIP3   OH242568   5.187   4.972   0.881
 6372TIP3    H142569   5.163   4.898   0.940
 6372TIP3    H242570   5.194   5.045   0.944
 6373TIP3   OH242571   4.183   5.117   1.012
 6373TIP3    H142572   4.151   5.029   0.985
 6373TIP3    H242573   4.276   5.109   0.986
 6374TIP3   OH242574   3.837   4.442   0.570
 6374TIP3    H142575   3.789   4.524   0.590
 6374TIP3    H242576   3.777   4.401   0.505
 6375TIP3   OH242577   3.883   4.694   0.822
 6375TIP3    H142578   3.912   4.601   0.831
 6375TIP3    H242579   3.966   4.743   0.811
 6376TIP3   OH242580   4.927   5.512   0.856
 6376TIP3    H142581   4.992   5.457   0.807
 6376TIP3    H242582   4.897   5.444   0.918
 6377TIP3   OH242583   4.662   4.955   1.112
 6377TIP3    H142584   4.688   4.921   1.025
 6377TIP3    H242585   4.750   4.970   1.153
 6378TIP3   OH242586   5.543   4.109   1.059
 6378TIP3    H142587   5.571   4.141   1.148
 6378TIP3    H242588   5.534   4.194   1.010
 6379TIP3   OH242589   5.029   4.395   1.129
 6379TIP3    H142590   5.070   4.309   1.145
 6379TIP3    H242591   5.006   4.391   1.033
 6380TIP3   OH242592   4.313   4.171   0.808
 6380TIP3    H142593   4.333   4.249   0.753
 6380TIP3    H242594   4.273   4.113   0.740
 6381TIP3   OH242595   5.080   4.198   0.688
 6381TIP3    H142596   5.133   4.171   0.767
 6381TIP3    H242597   5.141   4.260   0.644
 6382TIP3   OH242598   3.959   4.441   0.890
 6382TIP3    H142599   4.025   4.406   0.954
 6382TIP3    H242600   3.991   4.399   0.807
 6383TIP3   OH242601   4.454   4.586   0.844
 6383TIP3    H142602   4.530   4.538   0.882
 6383TIP3    H242603   4.427   4.520   0.777
 6384TIP3   OH242604   5.563   4.233   1.331
 6384TIP3    H142605   5.509   4.312   1.308
 6384TIP3    H242606   5.604   4.261   1.414
 6385TIP3   OH242607   4.210   4.089   1.217
 6385TIP3    H142608   4.170   4.136   1.141
 6385TIP3    H242609   4.146   4.112   1.287
 6386TIP3   OH242610   4.903   5.024   0.578
 6386TIP3    H142611   4.887   5.024   0.481
 6386TIP3    H242612   4.863   5.110   0.602
 6387TIP3   OH242613   4.425   4.852   1.206
 6387TIP3    H142614   4.371   4.928   1.237
 6387TIP3    H242615   4.501   4.899   1.166
 6388TIP3   OH242616   5.249   4.200   0.909
 6388TIP3    H142617   5.265   4.112   0.945
 6388TIP3    H242618   5.308   4.256   0.964
 6389TIP3   OH242619   4.161   4.281   1.024
 6389TIP3    H142620   4.225   4.338   1.074
 6389TIP3    H242621   4.214   4.253   0.946
 6390TIP3   OH242622   4.305   5.067   1.319
 6390TIP3    H142623   4.289   5.149   1.269
 6390TIP3    H242624   4.215   5.054   1.359
 6391TIP3   OH242625   3.891   5.002   0.403
 6391TIP3    H142626   3.888   5.048   0.315
 6391TIP3    H242627   3.906   5.078   0.464
 6392TIP3   OH242628   5.269   5.186   1.096
 6392TIP3    H142629   5.174   5.201   1.114
 6392TIP3    H242630   5.287   5.269   1.049
 6393TIP3   OH242631   5.314   4.004   1.206
 6393TIP3    H142632   5.229   4.014   1.158
 6393TIP3    H242633   5.373   4.061   1.153
 6394TIP3   OH242634   4.557   3.838   0.971
 6394TIP3    H142635   4.532   3.745   0.965
 6394TIP3    H242636   4.470   3.875   1.001
 6395TIP3   OH242637   5.098   5.362   0.724
 6395TIP3    H142638   5.131   5.280   0.681
 6395TIP3    H242639   5.175   5.423   0.710
 6396TIP3   OH242640   5.209   5.141   0.595
 6396TIP3    H142641   5.186   5.075   0.526
 6396TIP3    H242642   5.199   5.087   0.675
 6397TIP3   OH242643   5.363   5.011   1.463
 6397TIP3    H142644   5.385   4.934   1.405
 6397TIP3    H242645   5.380   5.085   1.400
 6398TIP3   OH242646   4.815   4.690   0.417
 6398TIP3    H142647   4.758   4.770   0.404
 6398TIP3    H242648   4.900   4.722   0.378
 6399TIP3   OH242649   4.813   4.610   0.141
 6399TIP3    H142650   4.872   4.627   0.218
 6399TIP3    H242651   4.857   4.535   0.100
 6400TIP3   OH242652   5.571   4.645   1.246
 6400TIP3    H142653   5.501   4.714   1.244
 6400TIP3    H242654   5.633   4.686   1.181
 6401TIP3   OH242655   5.201   4.692   0.532
 6401TIP3    H142656   5.133   4.730   0.592
 6401TIP3    H242657   5.264   4.653   0.597
 6402TIP3   OH242658   5.172   4.542   1.431
 6402TIP3    H142659   5.195   4.623   1.480
 6402TIP3    H242660   5.091   4.573   1.387
 6403TIP3   OH242661   4.314   4.764   0.699
 6403TIP3    H142662   4.296   4.719   0.613
 6403TIP3    H242663   4.379   4.703   0.741
 6404TIP3   OH242664   4.475   5.109   0.990
 6404TIP3    H142665   4.482   5.088   0.896
 6404TIP3    H242666   4.547   5.057   1.032
 6405TIP3   OH242667   4.341   4.635   1.089
 6405TIP3    H142668   4.372   4.644   0.997
 6405TIP3    H242669   4.383   4.712   1.133
 6406TIP3   OH242670   5.012   5.226   1.155
 6406TIP3    H142671   4.970   5.295   1.209
 6406TIP3    H242672   4.989   5.144   1.204
 6407TIP3   OH242673   4.456   5.064   1.543
 6407TIP3    H142674   4.397   5.137   1.571
 6407TIP3    H242675   4.415   5.046   1.455
 6408TIP3   OH242676   5.055   4.657   0.308
 6408TIP3    H142677   5.112   4.672   0.387
 6408TIP3    H242678   5.106   4.701   0.237
 6409TIP3   OH242679   4.152   4.703   1.459
 6409TIP3    H142680   4.167   4.771   1.525
 6409TIP3    H242681   4.063   4.672   1.488
 6410TIP3   OH242682   4.793   5.281   0.624
 6410TIP3    H142683   4.851   5.342   0.670
 6410TIP3    H242684   4.749   5.341   0.562
 6411TIP3   OH242685   4.292   5.261   1.623
 6411TIP3    H142686   4.270   5.302   1.536
 6411TIP3    H242687   4.202   5.233   1.652
 6412TIP3   OH242688   5.448   3.801   0.318
 6412TIP3    H142689   5.354   3.803   0.291
 6412TIP3    H242690   5.477   3.887   0.282
 6413TIP3   OH242691   4.215   4.653   0.465
 6413TIP3    H142692   4.164   4.734   0.442
 6413TIP3    H242693   4.149   4.584   0.447
 6414TIP3   OH242694   5.529   5.208   0.099
 6414TIP3    H142695   5.552   5.303   0.104
 6414TIP3    H242696   5.616   5.169   0.119
 6415TIP3   OH242697   3.853   4.924   1.389
 6415TIP3    H142698   3.808   4.926   1.303
 6415TIP3    H242699   3.894   4.835   1.383
 6416TIP3   OH242700   3.817   5.200   1.061
 6416TIP3    H142701   3.913   5.191   1.059
 6416TIP3    H242702   3.807   5.291   1.091
 6417TIP3   OH242703   5.626   5.267   1.601
 6417TIP3    H142704   5.626   5.171   1.616
 6417TIP3    H242705   5.544   5.291   1.650
 6418TIP3   OH242706   4.697   5.203   1.536
 6418TIP3    H142707   4.709   5.282   1.593
 6418TIP3    H242708   4.605   5.173   1.555
 6419TIP3   OH242709   4.751   5.587   0.449
 6419TIP3    H142710   4.761   5.611   0.355
 6419TIP3    H242711   4.764   5.674   0.492
 6420TIP3   OH242712   4.151   5.475   0.662
 6420TIP3    H142713   4.169   5.438   0.752
 6420TIP3    H242714   4.065   5.435   0.638
 6421TIP3   OH242715   5.090   5.534   0.159
 6421TIP3    H142716   5.149   5.465   0.123
 6421TIP3    H242717   5.093   5.519   0.255
 6422TIP3   OH242718   5.050   5.521   0.438
 6422TIP3    H142719   4.954   5.526   0.450
 6422TIP3    H242720   5.076   5.453   0.501
 6423TIP3   OH242721   5.332   4.407   1.652
 6423TIP3    H142722   5.277   4.443   1.581
 6423TIP3    H242723   5.346   4.315   1.623
 6424TIP3   OH242724   4.074   5.058   1.441
 6424TIP3    H142725   4.087   5.030   1.534
 6424TIP3    H242726   3.986   5.019   1.425
 6425TIP3   OH242727   4.321   3.914   1.057
 6425TIP3    H142728   4.233   3.901   1.017
 6425TIP3    H242729   4.298   3.973   1.133
 6426TIP3   OH242730   4.825   3.867   1.366
 6426TIP3    H142731   4.853   3.831   1.451
 6426TIP3    H242732   4.727   3.875   1.377
 6427TIP3   OH242733   5.114   4.275   1.443
 6427TIP3    H142734   5.055   4.247   1.517
 6427TIP3    H242735   5.111   4.372   1.445
 6428TIP3   OH242736   5.192   4.759   0.103
 6428TIP3    H142737   5.177   4.808   0.021
 6428TIP3    H242738   5.288   4.771   0.111
 6429TIP3   OH242739   4.767   4.167   0.115
 6429TIP3    H142740   4.717   4.170   0.200
 6429TIP3    H242741   4.754   4.073   0.094
 6430TIP3   OH242742   4.346   4.392   1.183
 6430TIP3    H142743   4.291   4.410   1.261
 6430TIP3    H242744   4.341   4.481   1.140
 6431TIP3   OH242745   4.346   4.388   0.659
 6431TIP3    H142746   4.249   4.384   0.650
 6431TIP3    H242747   4.377   4.365   0.569
 6432TIP3   OH242748   4.888   4.472   0.551
 6432TIP3    H142749   4.861   4.555   0.504
 6432TIP3    H242750   4.954   4.438   0.487
 6433TIP3   OH242751   4.786   4.503   1.712
 6433TIP3    H142752   4.758   4.419   1.753
 6433TIP3    H242753   4.870   4.516   1.761
 6434TIP3   OH242754   4.978   4.413   0.856
 6434TIP3    H142755   4.978   4.498   0.808
 6434TIP3    H242756   4.985   4.351   0.781
 6435TIP3   OH242757   4.088   4.414   1.316
 6435TIP3    H142758   4.129   4.439   1.400
 6435TIP3    H242759   4.067   4.321   1.332
 6436TIP3   OH242760   4.426   4.189   0.078
 6436TIP3    H142761   4.385   4.133   0.147
 6436TIP3    H242762   4.395   4.279   0.102
 6437TIP3   OH242763   3.791   4.121   0.766
 6437TIP3    H142764   3.862   4.121   0.832
 6437TIP3    H242765   3.834   4.146   0.683
 6438TIP3   OH242766   3.876   4.198   0.270
 6438TIP3    H142767   3.931   4.243   0.203
 6438TIP3    H242768   3.821   4.273   0.301
 6439TIP3   OH242769   4.909   4.587   1.276
 6439TIP3    H142770   4.961   4.519   1.229
 6439TIP3    H242771   4.856   4.532   1.338
 6440TIP3   OH242772   4.629   4.131   0.755
 6440TIP3    H142773   4.533   4.137   0.771
 6440TIP3    H242774   4.666   4.139   0.845
 6441TIP3   OH242775   4.063   4.318   0.666
 6441TIP3    H142776   3.989   4.352   0.611
 6441TIP3    H242777   4.086   4.232   0.625
 6442TIP3   OH242778   4.415   4.334   0.399
 6442TIP3    H142779   4.512   4.344   0.411
 6442TIP3    H242780   4.394   4.389   0.320
 6443TIP3   OH242781   5.068   4.050   1.089
 6443TIP3    H142782   4.987   4.087   1.129
 6443TIP3    H242783   5.032   4.008   1.008
 6444TIP3   OH242784   4.340   4.432   0.157
 6444TIP3    H142785   4.271   4.429   0.087
 6444TIP3    H242786   4.408   4.490   0.116
 6445TIP3   OH242787   5.330   5.670   1.741
 6445TIP3    H142788   5.362   5.729   1.671
 6445TIP3    H242789   5.407   5.670   1.800
 6446TIP3   OH242790   4.102   4.927   1.705
 6446TIP3    H142791   4.168   4.912   1.776
 6446TIP3    H242792   4.022   4.899   1.753
 6447TIP3   OH242793   4.678   4.435   0.924
 6447TIP3    H142794   4.771   4.424   0.895
 6447TIP3    H242795   4.682   4.394   1.011
 6448TIP3   OH242796   4.184   4.045   0.607
 6448TIP3    H142797   4.127   3.981   0.657
 6448TIP3    H242798   4.203   3.994   0.527
 6449TIP3   OH242799   4.578   4.265   1.201
 6449TIP3    H142800   4.499   4.321   1.183
 6449TIP3    H242801   4.630   4.321   1.260
 6450TIP3   OH242802   4.648   4.894   0.395
 6450TIP3    H142803   4.571   4.846   0.357
 6450TIP3    H242804   4.607   4.927   0.479
 6451TIP3   OH242805   5.383   4.850   1.250
 6451TIP3    H142806   5.433   4.910   1.190
 6451TIP3    H242807   5.295   4.858   1.211
 6452TIP3   OH242808   5.022   4.188   0.177
 6452TIP3    H142809   4.932   4.203   0.140
 6452TIP3    H242810   5.038   4.272   0.224
 6453TIP3   OH242811   4.768   4.938   1.508
 6453TIP3    H142812   4.745   4.929   1.602
 6453TIP3    H242813   4.741   5.030   1.494
 6454TIP3   OH242814   5.066   4.384   0.366
 6454TIP3    H142815   5.141   4.367   0.426
 6454TIP3    H242816   5.093   4.468   0.325
 6455TIP3   OH242817   4.157   4.857   0.928
 6455TIP3    H142818   4.213   4.840   0.850
 6455TIP3    H242819   4.173   4.779   0.985
 6456TIP3   OH242820   4.851   5.033   0.288
 6456TIP3    H142821   4.809   5.120   0.308
 6456TIP3    H242822   4.779   4.972   0.316
 6457TIP3   OH242823   3.876   4.657   1.469
 6457TIP3    H142824   3.857   4.629   1.561
 6457TIP3    H242825   3.808   4.605   1.423
 6458TIP3   OH242826   4.540   4.654   1.687
 6458TIP3    H142827   4.513   4.578   1.635
 6458TIP3    H242828   4.637   4.641   1.690
 6459TIP3   OH242829   5.047   5.170   1.520
 6459TIP3    H142830   4.962   5.182   1.476
 6459TIP3    H242831   5.025   5.211   1.607
 6460TIP3   OH242832   5.576   4.386   0.344
 6460TIP3    H142833   5.511   4.378   0.271
 6460TIP3    H242834   5.599   4.481   0.332
 6461TIP3   OH242835   5.603   4.982   1.608
 6461TIP3    H142836   5.517   4.996   1.562
 6461TIP3    H242837   5.661   4.965   1.529
 6462TIP3   OH242838   5.411   5.259   0.350
 6462TIP3    H142839   5.371   5.180   0.389
 6462TIP3    H242840   5.439   5.231   0.261
 6463TIP3   OH242841   5.135   4.764   1.066
 6463TIP3    H142842   5.048   4.722   1.051
 6463TIP3    H242843   5.192   4.699   1.021
 6464TIP3   OH242844   4.370   5.186   0.713
 6464TIP3    H142845   4.401   5.278   0.700
 6464TIP3    H242846   4.292   5.186   0.656
 6465TIP3   OH242847   3.971   4.671   0.138
 6465TIP3    H142848   4.020   4.736   0.191
 6465TIP3    H242849   3.878   4.688   0.160
 6466TIP3   OH242850   4.524   4.963   0.628
 6466TIP3    H142851   4.473   5.043   0.652
 6466TIP3    H242852   4.478   4.893   0.678
 6467TIP3   OH242853   4.592   5.382   1.324
 6467TIP3    H142854   4.663   5.442   1.296
 6467TIP3    H242855   4.637   5.332   1.394
 6468TIP3   OH242856   4.411   5.449   0.585
 6468TIP3    H142857   4.315   5.460   0.601
 6468TIP3    H242858   4.443   5.534   0.623
 6469TIP3   OH242859   4.893   4.972   1.250
 6469TIP3    H142860   4.858   4.941   1.337
 6469TIP3    H242861   4.946   4.895   1.222
 6470TIP3   OH242862   5.169   5.089   0.195
 6470TIP3    H142863   5.186   5.029   0.271
 6470TIP3    H242864   5.075   5.071   0.182
 6471TIP3   OH242865   5.218   5.421   1.480
 6471TIP3    H142866   5.130   5.386   1.456
 6471TIP3    H242867   5.237   5.486   1.408
 6472TIP3   OH242868   5.591   5.518   0.179
 6472TIP3    H142869   5.609   5.578   0.105
 6472TIP3    H242870   5.531   5.574   0.232
 6473TIP3   OH242871   4.037   4.157   1.427
 6473TIP3    H142872   3.961   4.200   1.472
 6473TIP3    H242873   4.037   4.072   1.474
 6474TIP3   OH242874   5.249   4.927   0.405
 6474TIP3    H142875   5.235   4.837   0.440
 6474TIP3    H242876   5.346   4.936   0.411
 6475TIP3   OH242877   3.996   5.335   1.269
 6475TIP3    H142878   4.051   5.255   1.276
 6475TIP3    H242879   4.009   5.376   1.356
 6476TIP3   OH242880   4.447   5.138   0.250
 6476TIP3    H142881   4.516   5.098   0.306
 6476TIP3    H242882   4.458   5.234   0.270
 6477TIP3   OH242883   4.099   4.862   0.300
 6477TIP3    H142884   4.026   4.916   0.338
 6477TIP3    H242885   4.157   4.930   0.261
 6478TIP3   OH242886   4.863   4.161   1.371
 6478TIP3    H142887   4.958   4.176   1.372
 6478TIP3    H242888   4.855   4.065   1.377
 6479TIP3   OH242889   4.959   4.091   0.468
 6479TIP3    H142890   4.995   4.131   0.387
 6479TIP3    H242891   4.997   4.149   0.538
 6480TIP3   OH242892   4.745   5.281   0.333
 6480TIP3    H142893   4.679   5.350   0.346
 6480TIP3    H242894   4.795   5.315   0.256
 6481TIP3   OH242895   4.689   4.277   0.516
 6481TIP3    H142896   4.755   4.348   0.533
 6481TIP3    H242897   4.669   4.240   0.604
 6482TIP3   OH242898   4.771   4.413   1.442
 6482TIP3    H142899   4.783   4.432   1.538
 6482TIP3    H242900   4.797   4.319   1.433
 6483TIP3   OH242901   4.783   3.937   0.607
 6483TIP3    H142902   4.729   4.014   0.634
 6483TIP3    H242903   4.858   3.983   0.562
 6484TIP3   OH242904   4.477   5.397   0.320
 6484TIP3    H142905   4.494   5.483   0.277
 6484TIP3    H242906   4.445   5.428   0.408
 6485TIP3   OH242907   4.309   4.084   0.300
 6485TIP3    H142908   4.319   4.168   0.349
 6485TIP3    H242909   4.389   4.038   0.331
 6486TIP3   OH242910   5.350   4.160   1.523
 6486TIP3    H142911   5.257   4.189   1.511
 6486TIP3    H242912   5.377   4.146   1.431
 6487TIP3   OH242913   5.226   4.529   0.923
 6487TIP3    H142914   5.158   4.460   0.928
 6487TIP3    H242915   5.303   4.487   0.966
 6488TIP3   OH242916   4.172   5.129   0.171
 6488TIP3    H142917   4.256   5.153   0.214
 6488TIP3    H242918   4.207   5.071   0.101
 6489TIP3   OH242919   4.006   4.400   0.073
 6489TIP3    H142920   4.023   4.490   0.104
 6489TIP3    H242921   3.922   4.416   0.025
 6490TIP3   OH242922   5.329   5.467   1.082
 6490TIP3    H142923   5.330   5.543   1.018
 6490TIP3    H242924   5.425   5.451   1.086
 6491TIP3   OH242925   4.068   3.867   0.983
 6491TIP3    H142926   4.063   3.857   0.885
 6491TIP3    H242927   4.044   3.775   1.009
 6492TIP3   OH242928   3.937   5.254   0.543
 6492TIP3    H142929   3.867   5.299   0.592
 6492TIP3    H242930   3.953   5.319   0.471
 6493TIP3   OH242931   3.906   5.516   1.675
 6493TIP3    H142932   3.972   5.515   1.747
 6493TIP3    H242933   3.871   5.425   1.680
 6494TIP3   OH242934   4.346   5.399   1.861
 6494TIP3    H142935   4.432   5.358   1.882
 6494TIP3    H242936   4.330   5.361   1.772
 6495TIP3   OH242937   4.840   5.385   0.105
 6495TIP3    H142938   4.771   5.340   0.051
 6495TIP3    H242939   4.904   5.410   0.036
 6496TIP3   OH242940   4.991   5.287   1.752
 6496TIP3    H142941   4.959   5.203   1.795
 6496TIP3    H242942   5.081   5.292   1.788
 6497TIP3   OH242943   5.268   5.338   0.031
 6497TIP3    H142944   5.261   5.263   0.095
 6497TIP3    H242945   5.363   5.339   0.014
 6498TIP3   OH242946   4.330   4.910   0.062
 6498TIP3    H142947   4.386   4.896   0.141
 6498TIP3    H242948   4.386   4.878  -0.011
 6499TIP3   OH242949   4.568   4.914   1.751
 6499TIP3    H142950   4.537   4.961   1.671
 6499TIP3    H242951   4.556   4.819   1.727
 6500TIP3   OH242952   5.115   4.894   1.499
 6500TIP3    H142953   5.197   4.948   1.497
 6500TIP3    H242954   5.052   4.967   1.512
 6501TIP3   OH242955   3.974   4.611   1.763
 6501TIP3    H142956   3.984   4.536   1.825
 6501TIP3    H242957   3.945   4.679   1.827
 6502TIP3   OH242958   4.443   4.760   0.270
 6502TIP3    H142959   4.376   4.705   0.315
 6502TIP3    H242960   4.479   4.697   0.204
 6503TIP3   OH242961   4.329   4.505   1.426
 6503TIP3    H142962   4.271   4.583   1.442
 6503TIP3    H242963   4.411   4.552   1.399
 6504TIP3   OH242964   4.556   4.571   0.051
 6504TIP3    H142965   4.590   4.565  -0.040
 6504TIP3    H242966   4.641   4.576   0.103
 6505TIP3   OH242967   4.903   4.800   1.832
 6505TIP3    H142968   4.974   4.757   1.783
 6505TIP3    H242969   4.876   4.733   1.899
 6506TIP3   OH242970   5.465   4.847   8.503
 6506TIP3    H142971   5.434   4.858   8.413
 6506TIP3    H242972   5.483   4.939   8.529
 6507TIP3   OH242973   4.433   4.277   1.562
 6507TIP3    H142974   4.435   4.207   1.493
 6507TIP3    H242975   4.396   4.353   1.512
 6508TIP3   OH242976   4.436   4.095   1.357
 6508TIP3    H142977   4.492   4.144   1.293
 6508TIP3    H242978   4.348   4.103   1.314
 6509TIP3   OH242979   4.563   4.681   1.366
 6509TIP3    H142980   4.651   4.713   1.342
 6509TIP3    H242981   4.507   4.750   1.325
 6510TIP3   OH242982   5.011   4.441   1.879
 6510TIP3    H142983   5.014   4.346   1.902
 6510TIP3    H242984   5.106   4.463   1.874
 6511TIP3   OH242985   5.191   4.724   1.703
 6511TIP3    H142986   5.156   4.783   1.633
 6511TIP3    H242987   5.287   4.723   1.683
 6512TIP3   OH242988   4.284   4.349   1.781
 6512TIP3    H142989   4.190   4.324   1.789
 6512TIP3    H242990   4.316   4.303   1.701
 6513TIP3   OH242991   4.548   3.853   1.350
 6513TIP3    H142992   4.504   3.940   1.360
 6513TIP3    H242993   4.471   3.800   1.323
 6514TIP3   OH242994   4.652   4.248   1.787
 6514TIP3    H142995   4.580   4.233   1.851
 6514TIP3    H242996   4.599   4.253   1.705
 6515TIP3   OH242997   4.924   4.207   1.657
 6515TIP3    H142998   4.829   4.204   1.677
 6515TIP3    H242999   4.957   4.149   1.728
 6516TIP3   OH243000   5.039   4.017   1.820
 6516TIP3    H143001   5.126   3.976   1.821
 6516TIP3    H243002   5.048   4.083   1.893
 6517TIP3   OH243003   4.056   4.180   1.809
 6517TIP3    H143004   4.047   4.102   1.752
 6517TIP3    H243005   4.046   4.138   1.899
 6518TIP3   OH243006   4.516   3.796   1.627
 6518TIP3    H143007   4.600   3.748   1.642
 6518TIP3    H243008   4.516   3.797   1.529
 6519TIP3   OH243009   4.550   3.920   1.893
 6519TIP3    H143010   4.530   3.883   1.805
 6519TIP3    H243011   4.516   4.012   1.883
 6520TIP3   OH243012   4.530   5.634   0.201
 6520TIP3    H143013   4.611   5.681   0.227
 6520TIP3    H243014   4.534   5.643   0.104
 6521TIP3   OH243015   3.878   5.083   0.131
 6521TIP3    H143016   3.975   5.092   0.139
 6521TIP3    H243017   3.871   5.057   0.038
 6522TIP3   OH243018   3.784   5.596   0.611
 6522TIP3    H143019   3.702   5.550   0.579
 6522TIP3    H243020   3.809   5.539   0.687
 6523TIP3   OH243021   3.857   5.432   0.815
 6523TIP3    H143022   3.785   5.387   0.864
 6523TIP3    H243023   3.912   5.461   0.891
 6524TIP3   OH243024   5.611   5.508   1.076
 6524TIP3    H143025   5.635   5.529   1.168
 6524TIP3    H243026   5.679   5.555   1.026
 6525TIP3   OH243027   5.542   5.479   1.387
 6525TIP3    H143028   5.502   5.407   1.333
 6525TIP3    H243029   5.573   5.425   1.462
 6526TIP3   OH243030   5.438   5.062   1.894
 6526TIP3    H143031   5.342   5.060   1.914
 6526TIP3    H243032   5.451   5.155   1.870
 6527TIP3   OH243033   5.536   4.889   0.401
 6527TIP3    H143034   5.621   4.934   0.422
 6527TIP3    H243035   5.534   4.822   0.473
 6528TIP3   OH243036   5.561   4.700   0.590
 6528TIP3    H143037   5.489   4.654   0.641
 6528TIP3    H243038   5.628   4.711   0.661
 6529TIP3   OH243039   5.546   4.971   1.085
 6529TIP3    H143040   5.614   4.906   1.059
 6529TIP3    H243041   5.592   5.056   1.076
 6530TIP3   OH243042   5.408   5.248   1.321
 6530TIP3    H143043   5.333   5.279   1.374
 6530TIP3    H243044   5.365   5.227   1.235
 6531TIP3   OH243045   5.577   4.665   0.229
 6531TIP3    H143046   5.518   4.694   0.157
 6531TIP3    H243047   5.566   4.739   0.293
 6532TIP3   OH243048   5.371   4.395   0.110
 6532TIP3    H143049   5.447   4.444   0.072
 6532TIP3    H243050   5.389   4.306   0.073
 6533TIP3   OH243051   5.369   4.548   0.694
 6533TIP3    H143052   5.346   4.458   0.663
 6533TIP3    H243053   5.331   4.548   0.784
 6534TIP3   OH243054   3.850   4.785   1.079
 6534TIP3    H143055   3.856   4.749   0.987
 6534TIP3    H243056   3.937   4.755   1.115
 6535TIP3   OH243057   5.459   4.740   1.634
 6535TIP3    H143058   5.515   4.662   1.655
 6535TIP3    H243059   5.523   4.813   1.630
 6536TIP3   OH243060   5.586   4.508   1.656
 6536TIP3    H143061   5.496   4.469   1.666
 6536TIP3    H243062   5.639   4.452   1.714
 6537TIP3   OH243063   5.356   4.149  -0.009
 6537TIP3    H143064   5.410   4.093   0.050
 6537TIP3    H243065   5.265   4.139   0.024
 6538TIP3   OH243066   5.288   4.321   0.528
 6538TIP3    H143067   5.319   4.230   0.545
 6538TIP3    H243068   5.346   4.342   0.453
 6539TIP3   OH243069   5.421   4.386   1.033
 6539TIP3    H143070   5.519   4.394   1.036
 6539TIP3    H243071   5.404   4.403   1.129
 6540TIP3   OH243072   5.390   4.438   1.292
 6540TIP3    H143073   5.299   4.463   1.322
 6540TIP3    H243074   5.441   4.521   1.308
 6541TIP3   OH243075   3.842   4.242   1.657
 6541TIP3    H143076   3.923   4.259   1.709
 6541TIP3    H243077   3.794   4.189   1.723
 6542TIP3   OH243078   5.641   3.849   1.863
 6542TIP3    H143079   5.697   3.790   1.811
 6542TIP3    H243080   5.618   3.917   1.795
 6543TIP3   OH243081   5.389   4.042   0.521
 6543TIP3    H143082   5.427   3.995   0.597
 6543TIP3    H243083   5.334   3.973   0.479
 6544TIP3   OH243084   3.946   4.106   1.014
 6544TIP3    H143085   3.990   4.018   1.010
 6544TIP3    H243086   4.021   4.169   1.011
 6545TIP3   OH243087   3.784   4.412   1.084
 6545TIP3    H143088   3.839   4.392   1.006
 6545TIP3    H243089   3.816   4.501   1.103
 6546TIP3   OH243090   5.564   4.034   1.689
 6546TIP3    H143091   5.482   4.073   1.727
 6546TIP3    H243092   5.526   3.988   1.611
 6547TIP3   OH243093   5.557   4.047   0.160
 6547TIP3    H143094   5.607   3.991   0.098
 6547TIP3    H243095   5.626   4.110   0.187
 6548TIP3   OH243096   3.791   4.037   0.477
 6548TIP3    H143097   3.696   4.054   0.489
 6548TIP3    H243098   3.807   4.079   0.390
 6549TIP3   OH243099   5.288   5.552   0.698
 6549TIP3    H143100   5.363   5.529   0.638
 6549TIP3    H243101   5.331   5.604   0.769
 6550TIP3   OH243102   3.796   3.893   1.300
 6550TIP3    H143103   3.727   3.861   1.362
 6550TIP3    H243104   3.747   3.963   1.252
 6551TIP3   OH243105   4.044   5.207   1.726
 6551TIP3    H143106   3.964   5.232   1.678
 6551TIP3    H243107   4.012   5.142   1.791
 6552TIP3   OH243108   4.320   5.369   1.364
 6552TIP3    H143109   4.318   5.463   1.333
 6552TIP3    H243110   4.417   5.353   1.357
 6553TIP3   OH243111   4.732   5.467   1.634
 6553TIP3    H143112   4.745   5.457   1.731
 6553TIP3    H243113   4.817   5.511   1.609
 6554TIP3   OH243114   4.952   5.605   1.547
 6554TIP3    H143115   5.036   5.565   1.523
 6554TIP3    H243116   4.976   5.650   1.630
 6555TIP3   OH243117   5.483   3.844   1.501
 6555TIP3    H143118   5.412   3.885   1.450
 6555TIP3    H243119   5.494   3.758   1.456
 6556TIP3   OH243120   4.061   5.664   1.339
 6556TIP3    H143121   3.990   5.729   1.324
 6556TIP3    H243122   4.051   5.648   1.434
 6557TIP3   OH243123   4.309   5.626   1.245
 6557TIP3    H143124   4.215   5.636   1.272
 6557TIP3    H243125   4.315   5.696   1.176
 6558TIP3   OH243126   4.770   5.575   1.175
 6558TIP3    H143127   4.714   5.606   1.103
 6558TIP3    H243128   4.783   5.655   1.229
 6559TIP3   OH243129   4.966   5.441   1.307
 6559TIP3    H143130   4.900   5.492   1.256
 6559TIP3    H243131   5.042   5.501   1.294
 6560TIP3   OH243132   5.231   5.605   1.287
 6560TIP3    H143133   5.249   5.694   1.254
 6560TIP3    H243134   5.263   5.554   1.208
 6561TIP3   OH243135   4.009   5.504   1.043
 6561TIP3    H143136   3.986   5.459   1.127
 6561TIP3    H243137   4.097   5.465   1.022
 6562TIP3   OH243138   4.228   5.395   0.919
 6562TIP3    H143139   4.215   5.303   0.949
 6562TIP3    H243140   4.319   5.407   0.954
 6563TIP3   OH243141   4.459   5.387   1.048
 6563TIP3    H143142   4.490   5.294   1.038
 6563TIP3    H243143   4.481   5.405   1.141
 6564TIP3   OH243144   4.803   3.968   0.905
 6564TIP3    H143145   4.719   3.956   0.953
 6564TIP3    H243146   4.775   3.957   0.813
 6565TIP3   OH243147   5.357   3.800   0.915
 6565TIP3    H143148   5.422   3.859   0.870
 6565TIP3    H243149   5.273   3.822   0.867
 6566TIP3   OH243150   5.520   3.908   0.728
 6566TIP3    H143151   5.590   3.849   0.693
 6566TIP3    H243152   5.568   3.994   0.738
 6567TIP3   OH243153   4.045   3.829   0.710
 6567TIP3    H143154   3.960   3.813   0.663
 6567TIP3    H243155   4.091   3.744   0.691
 6568TIP3   OH243156   3.913   3.824   0.260
 6568TIP3    H143157   3.979   3.879   0.212
 6568TIP3    H243158   3.875   3.885   0.325
 6569TIP3   OH243159   4.491   3.807   0.695
 6569TIP3    H143160   4.576   3.794   0.651
 6569TIP3    H243161   4.518   3.846   0.779
 6570TIP3   OH243162   5.104   3.826   0.808
 6570TIP3    H143163   5.056   3.880   0.745
 6570TIP3    H243164   5.032   3.772   0.848
 6571TIP3   OH243165   5.202   3.859   0.416
 6571TIP3    H143166   5.117   3.884   0.377
 6571TIP3    H243167   5.180   3.770   0.450
 6572TIP3   OH243168   3.932   5.445   0.354
 6572TIP3    H143169   3.841   5.439   0.319
 6572TIP3    H243170   3.943   5.541   0.338
 6573TIP3   OH243171   4.096   3.968   0.128
 6573TIP3    H143172   4.180   3.922   0.116
 6573TIP3    H243173   4.125   4.054   0.163
 6574TIP3   OH243174   4.639   4.075   0.350
 6574TIP3    H143175   4.670   4.014   0.417
 6574TIP3    H243176   4.655   4.161   0.399
 6575TIP3   OH243177   4.826   5.636   0.200
 6575TIP3    H143178   4.909   5.657   0.154
 6575TIP3    H243179   4.827   5.540   0.178
 6576TIP3   OH243180   5.456   5.474   0.503
 6576TIP3    H143181   5.443   5.395   0.445
 6576TIP3    H243182   5.447   5.546   0.436
 6577TIP3   OH243183   4.029   3.914   1.642
 6577TIP3    H143184   3.980   3.830   1.648
 6577TIP3    H243185   4.106   3.898   1.700
 6578TIP3   OH243186   4.209   3.820   1.844
 6578TIP3    H143187   4.296   3.807   1.805
 6578TIP3    H243188   4.195   3.735   1.889
 6579TIP3   OH243189   4.116   5.538   0.070
 6579TIP3    H143190   4.049   5.564   0.135
 6579TIP3    H243191   4.153   5.458   0.110
 6580TIP3   OH243192   5.401   5.392   1.673
 6580TIP3    H143193   5.338   5.385   1.598
 6580TIP3    H243194   5.381   5.483   1.700
 6581TIP3   OH243195   6.869   4.775   0.677
 6581TIP3    H143196   6.846   4.871   0.671
 6581TIP3    H243197   6.787   4.738   0.641
 6582TIP3   OH243198   6.725   4.659   1.007
 6582TIP3    H143199   6.750   4.613   1.089
 6582TIP3    H243200   6.659   4.601   0.964
 6583TIP3   OH243201   5.952   4.667   1.197
 6583TIP3    H143202   5.959   4.581   1.241
 6583TIP3    H243203   6.045   4.686   1.175
 6584TIP3   OH243204   7.120   4.997   0.887
 6584TIP3    H143205   7.090   4.923   0.943
 6584TIP3    H243206   7.109   5.072   0.948
 6585TIP3   OH243207   6.059   5.109   1.015
 6585TIP3    H143208   6.023   5.022   0.989
 6585TIP3    H243209   6.152   5.097   0.991
 6586TIP3   OH243210   5.734   4.424   0.587
 6586TIP3    H143211   5.707   4.514   0.605
 6586TIP3    H243212   5.672   4.397   0.517
 6587TIP3   OH243213   5.765   4.717   0.807
 6587TIP3    H143214   5.810   4.632   0.822
 6587TIP3    H243215   5.838   4.781   0.799
 6588TIP3   OH243216   6.832   5.526   0.869
 6588TIP3    H143217   6.886   5.471   0.807
 6588TIP3    H243218   6.786   5.454   0.915
 6589TIP3   OH243219   6.555   4.924   1.112
 6589TIP3    H143220   6.588   4.896   1.025
 6589TIP3    H243221   6.639   4.952   1.154
 6590TIP3   OH243222   7.441   4.105   1.103
 6590TIP3    H143223   7.438   4.154   1.188
 6590TIP3    H243224   7.488   4.169   1.048
 6591TIP3   OH243225   6.905   4.374   1.123
 6591TIP3    H143226   6.937   4.286   1.148
 6591TIP3    H243227   6.897   4.363   1.027
 6592TIP3   OH243228   6.199   4.163   0.803
 6592TIP3    H143229   6.225   4.244   0.752
 6592TIP3    H243230   6.175   4.105   0.728
 6593TIP3   OH243231   6.957   4.218   0.674
 6593TIP3    H143232   7.012   4.177   0.745
 6593TIP3    H243233   7.024   4.273   0.631
 6594TIP3   OH243234   5.849   4.456   0.880
 6594TIP3    H143235   5.921   4.425   0.937
 6594TIP3    H243236   5.873   4.408   0.798
 6595TIP3   OH243237   6.353   4.591   0.843
 6595TIP3    H143238   6.442   4.554   0.862
 6595TIP3    H243239   6.324   4.526   0.777
 6596TIP3   OH243240   7.440   4.219   1.357
 6596TIP3    H143241   7.378   4.294   1.342
 6596TIP3    H243242   7.501   4.262   1.418
 6597TIP3   OH243243   6.078   4.076   1.218
 6597TIP3    H143244   6.055   4.149   1.158
 6597TIP3    H243245   6.035   4.106   1.300
 6598TIP3   OH243246   6.785   5.016   0.569
 6598TIP3    H143247   6.758   5.018   0.476
 6598TIP3    H243248   6.748   5.102   0.600
 6599TIP3   OH243249   6.314   4.855   1.202
 6599TIP3    H143250   6.267   4.933   1.238
 6599TIP3    H243251   6.399   4.895   1.171
 6600TIP3   OH243252   7.117   4.147   0.868
 6600TIP3    H143253   7.071   4.128   0.953
 6600TIP3    H243254   7.210   4.133   0.889
 6601TIP3   OH243255   6.080   4.274   1.030
 6601TIP3    H143256   6.132   4.340   1.082
 6601TIP3    H243257   6.133   4.272   0.948
 6602TIP3   OH243258   6.199   5.067   1.317
 6602TIP3    H143259   6.173   5.141   1.260
 6602TIP3    H243260   6.112   5.045   1.358
 6603TIP3   OH243261   5.781   4.998   0.413
 6603TIP3    H143262   5.769   5.043   0.327
 6603TIP3    H243263   5.784   5.075   0.474
 6604TIP3   OH243264   7.139   5.196   1.078
 6604TIP3    H143265   7.043   5.215   1.087
 6604TIP3    H243266   7.174   5.285   1.056
 6605TIP3   OH243267   7.183   4.024   1.203
 6605TIP3    H143268   7.107   4.019   1.143
 6605TIP3    H243269   7.250   4.066   1.147
 6606TIP3   OH243270   6.449   3.837   0.967
 6606TIP3    H143271   6.424   3.745   0.953
 6606TIP3    H243272   6.361   3.873   0.994
 6607TIP3   OH243273   6.971   5.353   0.719
 6607TIP3    H143274   7.011   5.271   0.680
 6607TIP3    H243275   7.044   5.418   0.706
 6608TIP3   OH243276   7.090   5.142   0.582
 6608TIP3    H143277   7.073   5.069   0.518
 6608TIP3    H243278   7.130   5.095   0.657
 6609TIP3   OH243279   7.234   4.991   1.463
 6609TIP3    H143280   7.246   4.919   1.396
 6609TIP3    H243281   7.256   5.067   1.407
 6610TIP3   OH243282   6.696   4.694   0.415
 6610TIP3    H143283   6.635   4.770   0.402
 6610TIP3    H243284   6.780   4.729   0.379
 6611TIP3   OH243285   6.684   4.611   0.146
 6611TIP3    H143286   6.740   4.629   0.223
 6611TIP3    H243287   6.727   4.534   0.106
 6612TIP3   OH243288   7.416   4.643   1.258
 6612TIP3    H143289   7.348   4.713   1.242
 6612TIP3    H243290   7.483   4.668   1.190
 6613TIP3   OH243291   7.082   4.699   0.522
 6613TIP3    H143292   7.010   4.730   0.582
 6613TIP3    H243293   7.145   4.661   0.588
 6614TIP3   OH243294   7.035   4.545   1.459
 6614TIP3    H143295   7.030   4.635   1.495
 6614TIP3    H243296   6.978   4.556   1.380
 6615TIP3   OH243297   6.206   4.766   0.709
 6615TIP3    H143298   6.180   4.725   0.623
 6615TIP3    H243299   6.272   4.702   0.743
 6616TIP3   OH243300   6.367   5.115   0.987
 6616TIP3    H143301   6.381   5.100   0.893
 6616TIP3    H243302   6.433   5.059   1.031
 6617TIP3   OH243303   6.229   4.640   1.081
 6617TIP3    H143304   6.267   4.632   0.990
 6617TIP3    H243305   6.281   4.715   1.120
 6618TIP3   OH243306   6.881   5.228   1.126
 6618TIP3    H143307   6.854   5.302   1.183
 6618TIP3    H243308   6.865   5.150   1.182
 6619TIP3   OH243309   6.350   5.094   1.540
 6619TIP3    H143310   6.279   5.144   1.586
 6619TIP3    H243311   6.307   5.081   1.452
 6620TIP3   OH243312   6.932   4.673   0.300
 6620TIP3    H143313   6.998   4.684   0.371
 6620TIP3    H243314   6.976   4.713   0.223
 6621TIP3   OH243315   6.052   4.700   1.465
 6621TIP3    H143316   6.064   4.763   1.539
 6621TIP3    H243317   5.956   4.684   1.473
 6622TIP3   OH243318   6.690   5.248   0.662
 6622TIP3    H143319   6.759   5.291   0.712
 6622TIP3    H243320   6.650   5.321   0.613
 6623TIP3   OH243321   6.170   5.265   1.628
 6623TIP3    H143322   6.156   5.302   1.538
 6623TIP3    H243323   6.079   5.237   1.651
 6624TIP3   OH243324   7.317   3.801   0.304
 6624TIP3    H143325   7.223   3.806   0.278
 6624TIP3    H243326   7.346   3.890   0.274
 6625TIP3   OH243327   6.093   4.657   0.475
 6625TIP3    H143328   6.050   4.740   0.446
 6625TIP3    H243329   6.034   4.590   0.440
 6626TIP3   OH243330   7.413   5.261   0.092
 6626TIP3    H143331   7.452   5.350   0.081
 6626TIP3    H243332   7.493   5.207   0.112
 6627TIP3   OH243333   5.740   4.913   1.398
 6627TIP3    H143334   5.691   4.913   1.316
 6627TIP3    H243335   5.789   4.829   1.386
 6628TIP3   OH243336   5.714   5.197   1.059
 6628TIP3    H143337   5.810   5.185   1.064
 6628TIP3    H243338   5.707   5.284   1.098
 6629TIP3   OH243339   7.485   5.309   1.632
 6629TIP3    H143340   7.494   5.216   1.605
 6629TIP3    H243341   7.393   5.311   1.668
 6630TIP3   OH243342   6.603   5.205   1.520
 6630TIP3    H143343   6.615   5.284   1.577
 6630TIP3    H243344   6.510   5.176   1.540
 6631TIP3   OH243345   6.674   5.595   0.445
 6631TIP3    H143346   6.659   5.631   0.355
 6631TIP3    H243347   6.671   5.678   0.498
 6632TIP3   OH243348   6.033   5.468   0.659
 6632TIP3    H143349   6.054   5.430   0.748
 6632TIP3    H243350   5.946   5.428   0.640
 6633TIP3   OH243351   6.950   5.525   0.165
 6633TIP3    H143352   7.005   5.447   0.144
 6633TIP3    H243353   6.951   5.523   0.263
 6634TIP3   OH243354   6.937   5.503   0.443
 6634TIP3    H143355   6.840   5.518   0.451
 6634TIP3    H243356   6.954   5.438   0.513
 6635TIP3   OH243357   7.216   4.422   1.663
 6635TIP3    H143358   7.143   4.444   1.602
 6635TIP3    H243359   7.237   4.328   1.643
 6636TIP3   OH243360   5.965   5.056   1.433
 6636TIP3    H143361   5.976   5.041   1.528
 6636TIP3    H243362   5.875   5.019   1.421
 6637TIP3   OH243363   6.195   3.902   1.051
 6637TIP3    H143364   6.099   3.885   1.038
 6637TIP3    H243365   6.194   3.948   1.138
 6638TIP3   OH243366   6.696   3.854   1.379
 6638TIP3    H143367   6.724   3.825   1.467
 6638TIP3    H243368   6.598   3.859   1.385
 6639TIP3   OH243369   6.989   4.272   1.496
 6639TIP3    H143370   6.924   4.248   1.565
 6639TIP3    H243371   6.995   4.369   1.506
 6640TIP3   OH243372   7.066   4.771   0.090
 6640TIP3    H143373   7.076   4.792  -0.004
 6640TIP3    H243374   7.141   4.825   0.123
 6641TIP3   OH243375   6.652   4.172   0.123
 6641TIP3    H143376   6.612   4.165   0.211
 6641TIP3    H243377   6.630   4.084   0.089
 6642TIP3   OH243378   6.255   4.403   1.189
 6642TIP3    H143379   6.176   4.406   1.247
 6642TIP3    H243380   6.258   4.497   1.159
 6643TIP3   OH243381   6.241   4.390   0.663
 6643TIP3    H143382   6.145   4.402   0.650
 6643TIP3    H243383   6.271   4.385   0.569
 6644TIP3   OH243384   6.777   4.476   0.544
 6644TIP3    H143385   6.745   4.555   0.493
 6644TIP3    H243386   6.853   4.450   0.489
 6645TIP3   OH243387   6.659   4.534   1.646
 6645TIP3    H143388   6.634   4.447   1.681
 6645TIP3    H243389   6.729   4.560   1.707
 6646TIP3   OH243390   6.879   4.442   0.847
 6646TIP3    H143391   6.852   4.525   0.803
 6646TIP3    H243392   6.880   4.381   0.771
 6647TIP3   OH243393   5.989   4.397   1.301
 6647TIP3    H143394   6.022   4.443   1.380
 6647TIP3    H243395   5.944   4.319   1.339
 6648TIP3   OH243396   6.316   4.193   0.072
 6648TIP3    H143397   6.273   4.137   0.141
 6648TIP3    H243398   6.281   4.283   0.091
 6649TIP3   OH243399   5.674   4.130   0.743
 6649TIP3    H143400   5.754   4.179   0.766
 6649TIP3    H243401   5.678   4.126   0.645
 6650TIP3   OH243402   5.764   4.202   0.265
 6650TIP3    H143403   5.821   4.244   0.198
 6650TIP3    H243404   5.710   4.280   0.291
 6651TIP3   OH243405   6.818   4.595   1.260
 6651TIP3    H143406   6.861   4.518   1.216
 6651TIP3    H243407   6.754   4.549   1.316
 6652TIP3   OH243408   6.518   4.150   0.757
 6652TIP3    H143409   6.433   4.157   0.804
 6652TIP3    H243410   6.581   4.128   0.828
 6653TIP3   OH243411   5.960   4.306   0.675
 6653TIP3    H143412   5.894   4.347   0.614
 6653TIP3    H243413   5.991   4.229   0.625
 6654TIP3   OH243414   6.296   4.348   0.399
 6654TIP3    H143415   6.393   4.353   0.407
 6654TIP3    H243416   6.277   4.390   0.312
 6655TIP3   OH243417   6.947   4.074   1.076
 6655TIP3    H143418   6.882   4.073   1.149
 6655TIP3    H243419   6.893   4.036   1.005
 6656TIP3   OH243420   6.220   4.444   0.152
 6656TIP3    H143421   6.152   4.439   0.084
 6656TIP3    H243422   6.289   4.498   0.108
 6657TIP3   OH243423   7.233   5.630   1.720
 6657TIP3    H143424   7.302   5.659   1.658
 6657TIP3    H243425   7.283   5.620   1.803
 6658TIP3   OH243426   6.028   4.877   1.684
 6658TIP3    H143427   6.077   4.905   1.763
 6658TIP3    H243428   5.939   4.862   1.722
 6659TIP3   OH243429   6.589   4.439   0.914
 6659TIP3    H143430   6.680   4.406   0.904
 6659TIP3    H243431   6.553   4.383   0.984
 6660TIP3   OH243432   6.057   4.044   0.615
 6660TIP3    H143433   6.004   3.969   0.653
 6660TIP3    H243434   6.094   3.999   0.537
 6661TIP3   OH243435   6.467   4.247   1.200
 6661TIP3    H143436   6.392   4.310   1.192
 6661TIP3    H243437   6.536   4.304   1.235
 6662TIP3   OH243438   6.529   4.900   0.390
 6662TIP3    H143439   6.452   4.858   0.348
 6662TIP3    H243440   6.488   4.932   0.474
 6663TIP3   OH243441   7.247   4.848   1.234
 6663TIP3    H143442   7.305   4.902   1.176
 6663TIP3    H243443   7.171   4.831   1.174
 6664TIP3   OH243444   6.912   4.185   0.185
 6664TIP3    H143445   6.822   4.191   0.147
 6664TIP3    H243446   6.922   4.275   0.220
 6665TIP3   OH243447   6.641   4.938   1.492
 6665TIP3    H143448   6.623   4.922   1.586
 6665TIP3    H243449   6.632   5.036   1.486
 6666TIP3   OH243450   6.986   4.401   0.364
 6666TIP3    H143451   7.066   4.374   0.412
 6666TIP3    H243452   7.015   4.480   0.315
 6667TIP3   OH243453   6.041   4.848   0.919
 6667TIP3    H143454   6.096   4.839   0.838
 6667TIP3    H243455   6.079   4.782   0.978
 6668TIP3   OH243456   6.736   5.033   0.277
 6668TIP3    H143457   6.695   5.120   0.301
 6668TIP3    H243458   6.666   4.970   0.307
 6669TIP3   OH243459   5.755   4.643   1.476
 6669TIP3    H143460   5.720   4.593   1.554
 6669TIP3    H243461   5.687   4.624   1.410
 6670TIP3   OH243462   6.417   4.648   1.643
 6670TIP3    H143463   6.373   4.594   1.576
 6670TIP3    H243464   6.511   4.620   1.637
 6671TIP3   OH243465   6.918   5.177   1.489
 6671TIP3    H143466   6.831   5.195   1.452
 6671TIP3    H243467   6.905   5.218   1.577
 6672TIP3   OH243468   7.416   4.412   0.340
 6672TIP3    H143469   7.376   4.384   0.254
 6672TIP3    H243470   7.432   4.507   0.318
 6673TIP3   OH243471   7.470   4.993   1.597
 6673TIP3    H143472   7.382   4.996   1.553
 6673TIP3    H243473   7.529   4.977   1.520
 6674TIP3   OH243474   7.346   5.227   0.363
 6674TIP3    H143475   7.260   5.192   0.392
 6674TIP3    H243476   7.345   5.216   0.266
 6675TIP3   OH243477   7.044   4.778   1.056
 6675TIP3    H143478   6.949   4.759   1.057
 6675TIP3    H243479   7.074   4.696   1.009
 6676TIP3   OH243480   6.277   5.199   0.685
 6676TIP3    H143481   6.306   5.290   0.662
 6676TIP3    H243482   6.190   5.198   0.641
 6677TIP3   OH243483   5.852   4.681   0.129
 6677TIP3    H143484   5.906   4.735   0.189
 6677TIP3    H243485   5.761   4.695   0.160
 6678TIP3   OH243486   6.400   4.965   0.618
 6678TIP3    H143487   6.358   5.052   0.637
 6678TIP3    H243488   6.355   4.905   0.680
 6679TIP3   OH243489   6.473   5.375   1.325
 6679TIP3    H143490   6.542   5.437   1.296
 6679TIP3    H243491   6.520   5.332   1.398
 6680TIP3   OH243492   6.293   5.452   0.582
 6680TIP3    H143493   6.197   5.451   0.605
 6680TIP3    H243494   6.316   5.539   0.620
 6681TIP3   OH243495   6.785   4.959   1.243
 6681TIP3    H143496   6.753   4.944   1.334
 6681TIP3    H243497   6.819   4.870   1.219
 6682TIP3   OH243498   7.035   5.098   0.182
 6682TIP3    H143499   7.064   5.051   0.262
 6682TIP3    H243500   6.943   5.070   0.179
 6683TIP3   OH243501   7.058   5.439   1.477
 6683TIP3    H143502   6.985   5.382   1.446
 6683TIP3    H243503   7.080   5.490   1.395
 6684TIP3   OH243504   7.479   5.525   0.188
 6684TIP3    H143505   7.514   5.587   0.123
 6684TIP3    H243506   7.402   5.576   0.222
 6685TIP3   OH243507   5.926   4.154   1.441
 6685TIP3    H143508   5.857   4.208   1.487
 6685TIP3    H243509   5.974   4.124   1.521
 6686TIP3   OH243510   7.126   4.936   0.387
 6686TIP3    H143511   7.101   4.854   0.434
 6686TIP3    H243512   7.223   4.930   0.392
 6687TIP3   OH243513   5.879   5.332   1.254
 6687TIP3    H143514   5.935   5.255   1.275
 6687TIP3    H243515   5.875   5.378   1.339
 6688TIP3   OH243516   6.331   5.141   0.253
 6688TIP3    H143517   6.403   5.101   0.304
 6688TIP3    H243518   6.342   5.237   0.274
 6689TIP3   OH243519   5.987   4.861   0.300
 6689TIP3    H143520   5.922   4.907   0.357
 6689TIP3    H243521   6.035   4.936   0.258
 6690TIP3   OH243522   6.783   4.135   1.366
 6690TIP3    H143523   6.844   4.150   1.441
 6690TIP3    H243524   6.746   4.048   1.389
 6691TIP3   OH243525   6.840   4.102   0.458
 6691TIP3    H143526   6.889   4.139   0.383
 6691TIP3    H243527   6.872   4.156   0.533
 6692TIP3   OH243528   6.635   5.279   0.344
 6692TIP3    H143529   6.567   5.347   0.348
 6692TIP3    H243530   6.689   5.313   0.269
 6693TIP3   OH243531   6.570   4.282   0.512
 6693TIP3    H143532   6.638   4.350   0.532
 6693TIP3    H243533   6.541   4.249   0.599
 6694TIP3   OH243534   6.669   4.392   1.406
 6694TIP3    H143535   6.670   4.417   1.500
 6694TIP3    H243536   6.717   4.307   1.400
 6695TIP3   OH243537   6.650   3.950   0.572
 6695TIP3    H143538   6.609   4.021   0.625
 6695TIP3    H243539   6.729   4.000   0.537
 6696TIP3   OH243540   6.359   5.404   0.320
 6696TIP3    H143541   6.382   5.491   0.282
 6696TIP3    H243542   6.323   5.432   0.407
 6697TIP3   OH243543   6.201   4.082   0.290
 6697TIP3    H143544   6.194   4.158   0.350
 6697TIP3    H243545   6.283   4.041   0.323
 6698TIP3   OH243546   7.242   4.162   1.562
 6698TIP3    H143547   7.154   4.170   1.518
 6698TIP3    H243548   7.304   4.173   1.488
 6699TIP3   OH243549   7.109   4.554   0.930
 6699TIP3    H143550   7.027   4.503   0.914
 6699TIP3    H243551   7.161   4.488   0.983
 6700TIP3   OH243552   6.055   5.122   0.157
 6700TIP3    H143553   6.132   5.154   0.207
 6700TIP3    H243554   6.102   5.069   0.090
 6701TIP3   OH243555   5.881   4.412   0.088
 6701TIP3    H143556   5.893   4.508   0.104
 6701TIP3    H243557   5.805   4.414   0.028
 6702TIP3   OH243558   7.257   5.445   1.072
 6702TIP3    H143559   7.240   5.516   1.007
 6702TIP3    H243560   7.351   5.462   1.093
 6703TIP3   OH243561   5.945   3.857   0.981
 6703TIP3    H143562   5.931   3.818   0.892
 6703TIP3    H243563   5.915   3.781   1.036
 6704TIP3   OH243564   5.826   5.277   0.563
 6704TIP3    H143565   5.746   5.320   0.596
 6704TIP3    H243566   5.839   5.324   0.478
 6705TIP3   OH243567   5.773   5.557   1.687
 6705TIP3    H143568   5.851   5.536   1.742
 6705TIP3    H243569   5.725   5.473   1.693
 6706TIP3   OH243570   6.239   5.422   1.843
 6706TIP3    H143571   6.329   5.390   1.862
 6706TIP3    H243572   6.220   5.373   1.760
 6707TIP3   OH243573   6.723   5.393   0.110
 6707TIP3    H143574   6.663   5.338   0.054
 6707TIP3    H243575   6.789   5.421   0.044
 6708TIP3   OH243576   6.883   5.291   1.733
 6708TIP3    H143577   6.849   5.208   1.775
 6708TIP3    H243578   6.970   5.296   1.773
 6709TIP3   OH243579   7.134   5.359   0.024
 6709TIP3    H143580   7.126   5.273   0.070
 6709TIP3    H243581   7.230   5.372   0.021
 6710TIP3   OH243582   5.770   4.867   1.775
 6710TIP3    H143583   5.745   4.774   1.759
 6710TIP3    H243584   5.707   4.916   1.718
 6711TIP3   OH243585   6.231   4.933   0.022
 6711TIP3    H143586   6.282   4.917   0.103
 6711TIP3    H243587   6.276   4.872  -0.041
 6712TIP3   OH243588   6.433   4.902   1.714
 6712TIP3    H143589   6.410   4.963   1.641
 6712TIP3    H243590   6.427   4.812   1.673
 6713TIP3   OH243591   6.993   4.872   1.518
 6713TIP3    H143592   7.082   4.912   1.517
 6713TIP3    H243593   6.939   4.953   1.510
 6714TIP3   OH243594   5.841   4.595   1.783
 6714TIP3    H143595   5.936   4.600   1.764
 6714TIP3    H243596   5.836   4.620   1.877
 6715TIP3   OH243597   6.334   4.766   0.260
 6715TIP3    H143598   6.268   4.711   0.305
 6715TIP3    H243599   6.375   4.701   0.199
 6716TIP3   OH243600   6.250   4.525   1.439
 6716TIP3    H143601   6.187   4.599   1.454
 6716TIP3    H243602   6.316   4.568   1.379
 6717TIP3   OH243603   6.432   4.581   0.050
 6717TIP3    H143604   6.466   4.578  -0.041
 6717TIP3    H243605   6.517   4.584   0.101
 6718TIP3   OH243606   6.781   4.810   1.819
 6718TIP3    H143607   6.849   4.761   1.770
 6718TIP3    H243608   6.748   4.742   1.882
 6719TIP3   OH243609   7.331   4.854   8.489
 6719TIP3    H143610   7.349   4.789   8.419
 6719TIP3    H243611   7.403   4.917   8.485
 6720TIP3   OH243612   6.340   4.299   1.565
 6720TIP3    H143613   6.334   4.229   1.495
 6720TIP3    H243614   6.324   4.381   1.513
 6721TIP3   OH243615   6.326   4.104   1.372
 6721TIP3    H143616   6.395   4.145   1.314
 6721TIP3    H243617   6.246   4.127   1.324
 6722TIP3   OH243618   6.459   4.671   1.333
 6722TIP3    H143619   6.544   4.717   1.335
 6722TIP3    H243620   6.400   4.744   1.303
 6723TIP3   OH243621   6.910   4.401   1.887
 6723TIP3    H143622   6.907   4.305   1.902
 6723TIP3    H243623   6.998   4.415   1.848
 6724TIP3   OH243624   7.048   4.709   1.721
 6724TIP3    H143625   7.030   4.776   1.651
 6724TIP3    H243626   7.144   4.699   1.713
 6725TIP3   OH243627   6.158   4.363   1.762
 6725TIP3    H143628   6.076   4.313   1.774
 6725TIP3    H243629   6.206   4.318   1.690
 6726TIP3   OH243630   6.422   3.843   1.343
 6726TIP3    H143631   6.396   3.935   1.366
 6726TIP3    H243632   6.335   3.804   1.327
 6727TIP3   OH243633   6.546   4.261   1.755
 6727TIP3    H143634   6.506   4.195   1.814
 6727TIP3    H243635   6.476   4.262   1.686
 6728TIP3   OH243636   6.792   4.186   1.666
 6728TIP3    H143637   6.701   4.210   1.696
 6728TIP3    H243638   6.818   4.132   1.743
 6729TIP3   OH243639   6.924   4.064   1.888
 6729TIP3    H143640   6.924   3.967   1.877
 6729TIP3    H243641   6.935   4.070   1.987
 6730TIP3   OH243642   5.953   4.134   1.819
 6730TIP3    H143643   6.004   4.059   1.855
 6730TIP3    H243644   5.912   4.170   1.901
 6731TIP3   OH243645   6.408   3.806   1.608
 6731TIP3    H143646   6.459   3.730   1.641
 6731TIP3    H243647   6.414   3.792   1.512
 6732TIP3   OH243648   6.429   4.005   1.817
 6732TIP3    H143649   6.432   3.937   1.746
 6732TIP3    H243650   6.395   3.948   1.888
 6733TIP3   OH243651   6.411   5.650   0.208
 6733TIP3    H143652   6.499   5.691   0.219
 6733TIP3    H243653   6.409   5.645   0.110
 6734TIP3   OH243654   5.766   5.071   0.137
 6734TIP3    H143655   5.863   5.089   0.140
 6734TIP3    H243656   5.756   5.053   0.042
 6735TIP3   OH243657   5.676   5.591   0.608
 6735TIP3    H143658   5.591   5.552   0.577
 6735TIP3    H243659   5.696   5.534   0.686
 6736TIP3   OH243660   5.743   5.437   0.822
 6736TIP3    H143661   5.691   5.365   0.862
 6736TIP3    H243662   5.806   5.459   0.894
 6737TIP3   OH243663   7.519   5.535   1.140
 6737TIP3    H143664   7.512   5.555   1.236
 6737TIP3    H243665   7.538   5.624   1.107
 6738TIP3   OH243666   7.435   5.473   1.410
 6738TIP3    H143667   7.405   5.405   1.346
 6738TIP3    H243668   7.452   5.415   1.488
 6739TIP3   OH243669   7.322   5.064   1.887
 6739TIP3    H143670   7.238   5.084   1.936
 6739TIP3    H243671   7.310   5.112   1.804
 6740TIP3   OH243672   7.401   4.888   0.398
 6740TIP3    H143673   7.481   4.941   0.416
 6740TIP3    H243674   7.406   4.821   0.468
 6741TIP3   OH243675   7.472   4.680   0.599
 6741TIP3    H143676   7.386   4.649   0.638
 6741TIP3    H243677   7.522   4.705   0.680
 6742TIP3   OH243678   7.459   4.950   1.117
 6742TIP3    H143679   7.477   4.903   1.035
 6742TIP3    H243680   7.474   5.043   1.089
 6743TIP3   OH243681   7.309   5.241   1.313
 6743TIP3    H143682   7.238   5.279   1.368
 6743TIP3    H243683   7.263   5.226   1.228
 6744TIP3   OH243684   7.461   4.675   0.222
 6744TIP3    H143685   7.381   4.680   0.167
 6744TIP3    H243686   7.461   4.762   0.268
 6745TIP3   OH243687   7.236   4.395   0.125
 6745TIP3    H143688   7.302   4.433   0.065
 6745TIP3    H243689   7.241   4.301   0.098
 6746TIP3   OH243690   7.245   4.576   0.699
 6746TIP3    H143691   7.223   4.486   0.669
 6746TIP3    H243692   7.208   4.577   0.790
 6747TIP3   OH243693   5.736   4.769   1.081
 6747TIP3    H143694   5.749   4.755   0.985
 6747TIP3    H243695   5.824   4.746   1.117
 6748TIP3   OH243696   7.339   4.738   1.637
 6748TIP3    H143697   7.404   4.665   1.646
 6748TIP3    H243698   7.399   4.814   1.624
 6749TIP3   OH243699   7.476   4.510   1.656
 6749TIP3    H143700   7.380   4.491   1.655
 6749TIP3    H243701   7.508   4.426   1.696
 6750TIP3   OH243702   7.227   4.150  -0.000
 6750TIP3    H143703   7.267   4.086   0.062
 6750TIP3    H243704   7.133   4.142   0.022
 6751TIP3   OH243705   7.207   4.307   0.516
 6751TIP3    H143706   7.224   4.212   0.530
 6751TIP3    H243707   7.275   4.327   0.449
 6752TIP3   OH243708   7.242   4.379   1.066
 6752TIP3    H143709   7.338   4.362   1.050
 6752TIP3    H243710   7.243   4.374   1.163
 6753TIP3   OH243711   7.271   4.426   1.350
 6753TIP3    H143712   7.189   4.457   1.392
 6753TIP3    H243713   7.313   4.511   1.323
 6754TIP3   OH243714   5.756   4.215   1.646
 6754TIP3    H143715   5.819   4.185   1.715
 6754TIP3    H243716   5.681   4.155   1.667
 6755TIP3   OH243717   7.452   3.750   1.844
 6755TIP3    H143718   7.500   3.777   1.765
 6755TIP3    H243719   7.465   3.830   1.898
 6756TIP3   OH243720   7.244   4.036   0.503
 6756TIP3    H143721   7.269   3.997   0.590
 6756TIP3    H243722   7.187   3.966   0.463
 6757TIP3   OH243723   5.814   4.142   1.002
 6757TIP3    H143724   5.728   4.098   0.987
 6757TIP3    H243725   5.782   4.231   1.026
 6758TIP3   OH243726   5.687   4.389   1.076
 6758TIP3    H143727   5.730   4.422   0.994
 6758TIP3    H243728   5.706   4.464   1.135
 6759TIP3   OH243729   7.450   4.008   1.741
 6759TIP3    H143730   7.371   4.059   1.767
 6759TIP3    H243731   7.417   3.970   1.657
 6760TIP3   OH243732   7.402   4.018   0.162
 6760TIP3    H143733   7.439   3.995   0.076
 6760TIP3    H243734   7.467   4.087   0.189
 6761TIP3   OH243735   5.684   4.040   0.480
 6761TIP3    H143736   5.590   4.016   0.483
 6761TIP3    H243737   5.692   4.085   0.393
 6762TIP3   OH243738   7.160   5.541   0.689
 6762TIP3    H143739   7.218   5.528   0.611
 6762TIP3    H243740   7.226   5.560   0.757
 6763TIP3   OH243741   5.632   3.917   1.265
 6763TIP3    H143742   5.575   3.843   1.292
 6763TIP3    H243743   5.578   3.952   1.192
 6764TIP3   OH243744   5.923   5.186   1.713
 6764TIP3    H143745   5.846   5.245   1.704
 6764TIP3    H243746   5.934   5.179   1.808
 6765TIP3   OH243747   6.203   5.361   1.374
 6765TIP3    H143748   6.207   5.454   1.341
 6765TIP3    H243749   6.298   5.338   1.366
 6766TIP3   OH243750   6.625   5.462   1.616
 6766TIP3    H143751   6.623   5.449   1.712
 6766TIP3    H243752   6.713   5.504   1.603
 6767TIP3   OH243753   6.857   5.609   1.590
 6767TIP3    H143754   6.929   5.549   1.561
 6767TIP3    H243755   6.894   5.641   1.676
 6768TIP3   OH243756   7.332   3.850   1.527
 6768TIP3    H143757   7.255   3.883   1.478
 6768TIP3    H243758   7.342   3.760   1.493
 6769TIP3   OH243759   5.945   5.659   1.353
 6769TIP3    H143760   5.865   5.705   1.323
 6769TIP3    H243761   5.937   5.668   1.449
 6770TIP3   OH243762   6.181   5.604   1.239
 6770TIP3    H143763   6.090   5.622   1.274
 6770TIP3    H243764   6.186   5.669   1.166
 6771TIP3   OH243765   6.654   5.600   1.155
 6771TIP3    H143766   6.568   5.636   1.130
 6771TIP3    H243767   6.675   5.654   1.235
 6772TIP3   OH243768   6.846   5.449   1.298
 6772TIP3    H143769   6.797   5.495   1.227
 6772TIP3    H243770   6.919   5.513   1.309
 6773TIP3   OH243771   7.108   5.592   1.260
 6773TIP3    H143772   7.133   5.683   1.236
 6773TIP3    H243773   7.150   5.541   1.188
 6774TIP3   OH243774   5.903   5.498   1.036
 6774TIP3    H143775   5.882   5.444   1.115
 6774TIP3    H243776   5.993   5.463   1.014
 6775TIP3   OH243777   6.120   5.391   0.914
 6775TIP3    H143778   6.108   5.298   0.941
 6775TIP3    H243779   6.209   5.408   0.953
 6776TIP3   OH243780   6.355   5.392   1.037
 6776TIP3    H143781   6.380   5.298   1.025
 6776TIP3    H243782   6.363   5.399   1.133
 6777TIP3   OH243783   6.713   4.001   0.933
 6777TIP3    H143784   6.626   3.963   0.954
 6777TIP3    H243785   6.760   3.921   0.905
 6778TIP3   OH243786   7.232   3.807   0.932
 6778TIP3    H143787   7.268   3.875   0.870
 6778TIP3    H243788   7.136   3.818   0.918
 6779TIP3   OH243789   7.349   3.927   0.724
 6779TIP3    H143790   7.409   3.859   0.686
 6779TIP3    H243791   7.411   4.001   0.743
 6780TIP3   OH243792   5.930   3.827   0.707
 6780TIP3    H143793   5.842   3.812   0.666
 6780TIP3    H243794   5.975   3.741   0.687
 6781TIP3   OH243795   5.791   3.833   0.256
 6781TIP3    H143796   5.857   3.888   0.207
 6781TIP3    H243797   5.765   3.891   0.330
 6782TIP3   OH243798   6.367   3.813   0.705
 6782TIP3    H143799   6.449   3.803   0.654
 6782TIP3    H243800   6.400   3.860   0.784
 6783TIP3   OH243801   6.967   3.848   0.842
 6783TIP3    H143802   6.960   3.877   0.750
 6783TIP3    H243803   6.911   3.766   0.843
 6784TIP3   OH243804   7.071   3.849   0.401
 6784TIP3    H143805   6.986   3.895   0.398
 6784TIP3    H243806   7.044   3.765   0.444
 6785TIP3   OH243807   5.812   5.442   0.349
 6785TIP3    H143808   5.723   5.436   0.311
 6785TIP3    H243809   5.823   5.539   0.337
 6786TIP3   OH243810   5.971   3.968   0.124
 6786TIP3    H143811   6.054   3.918   0.115
 6786TIP3    H243812   6.004   4.056   0.146
 6787TIP3   OH243813   6.516   4.073   0.350
 6787TIP3    H143814   6.548   4.013   0.420
 6787TIP3    H243815   6.536   4.159   0.395
 6788TIP3   OH243816   6.691   5.647   0.178
 6788TIP3    H143817   6.776   5.658   0.132
 6788TIP3    H243818   6.688   5.548   0.172
 6789TIP3   OH243819   7.343   5.486   0.480
 6789TIP3    H143820   7.350   5.404   0.426
 6789TIP3    H243821   7.335   5.555   0.411
 6790TIP3   OH243822   5.888   3.896   1.614
 6790TIP3    H143823   5.862   3.805   1.641
 6790TIP3    H243824   5.964   3.909   1.676
 6791TIP3   OH243825   6.011   5.549   0.062
 6791TIP3    H143826   5.938   5.570   0.122
 6791TIP3    H243827   6.044   5.467   0.097
 6792TIP3   OH243828   6.940   3.791   1.849
 6792TIP3    H143829   6.934   3.752   1.938
 6792TIP3    H243830   7.030   3.762   1.820
 6793TIP3   OH243831   7.224   5.333   1.668
 6793TIP3    H143832   7.151   5.359   1.608
 6793TIP3    H243833   7.214   5.394   1.743
 6794TIP3   OH243834   7.569   4.429   0.565
 6794TIP3    H143835   7.545   4.523   0.583
 6794TIP3    H243836   7.516   4.414   0.484
 6795TIP3   OH243837   7.649   4.724   0.797
 6795TIP3    H143838   7.659   4.629   0.810
 6795TIP3    H243839   7.743   4.753   0.796
 6796TIP3   OH243840   7.652   5.035   0.417
 6796TIP3    H143841   7.652   5.060   0.323
 6796TIP3    H243842   7.630   5.118   0.462
 6797TIP3   OH243843   7.561   4.901   1.365
 6797TIP3    H143844   7.521   4.899   1.275
 6797TIP3    H243845   7.594   4.810   1.378
 6798TIP3   OH243846   7.528   5.201   1.043
 6798TIP3    H143847   7.621   5.194   1.017
 6798TIP3    H243848   7.534   5.266   1.114
 6799TIP3   OH243849   7.518   4.140   0.738
 6799TIP3    H143850   7.608   4.179   0.744
 6799TIP3    H243851   7.508   4.135   0.640
 6800TIP3   OH243852   7.583   4.204   0.245
 6800TIP3    H143853   7.677   4.220   0.229
 6800TIP3    H243854   7.561   4.276   0.306
 6801TIP3   OH243855   7.599   4.637   1.456
 6801TIP3    H143856   7.580   4.589   1.539
 6801TIP3    H243857   7.518   4.617   1.404
 6802TIP3   OH243858   7.608   5.565   1.720
 6802TIP3    H143859   7.706   5.568   1.722
 6802TIP3    H243860   7.592   5.480   1.674
 6803TIP3   OH243861   7.604   4.859   1.786
 6803TIP3    H143862   7.543   4.816   1.850
 6803TIP3    H243863   7.540   4.902   1.724
 6804TIP3   OH243864   7.629   5.099   0.103
 6804TIP3    H143865   7.726   5.081   0.102
 6804TIP3    H243866   7.617   5.100   0.006
 6805TIP3   OH243867   7.490   5.602   0.668
 6805TIP3    H143868   7.445   5.547   0.600
 6805TIP3    H243869   7.531   5.533   0.724
 6806TIP3   OH243870   7.557   5.404   0.830
 6806TIP3    H143871   7.506   5.329   0.864
 6806TIP3    H243872   7.591   5.443   0.911
 6807TIP3   OH243873   7.606   4.708   1.088
 6807TIP3    H143874   7.603   4.725   0.993
 6807TIP3    H243875   7.695   4.747   1.109
 6808TIP3   OH243876   7.533   4.256   1.715
 6808TIP3    H143877   7.623   4.257   1.676
 6808TIP3    H243878   7.522   4.161   1.737
 6809TIP3   OH243879   7.503   4.385   1.070
 6809TIP3    H143880   7.600   4.382   1.075
 6809TIP3    H243881   7.494   4.481   1.074
 6810TIP3   OH243882   7.506   4.095   0.473
 6810TIP3    H143883   7.412   4.066   0.467
 6810TIP3    H243884   7.527   4.102   0.377
 6811TIP3   OH243885   7.479   3.870   1.258
 6811TIP3    H143886   7.458   3.883   1.353
 6811TIP3    H243887   7.441   3.952   1.218
 6812TIP3   OH243888   7.651   5.430   0.373
 6812TIP3    H143889   7.577   5.436   0.310
 6812TIP3    H243890   7.673   5.523   0.388
 6813TIP3   OH243891   1.193   6.657   0.677
 6813TIP3    H143892   1.168   6.751   0.680
 6813TIP3    H243893   1.117   6.619   0.630
 6814TIP3   OH243894   1.065   6.551   1.027
 6814TIP3    H143895   1.073   6.507   1.115
 6814TIP3    H243896   1.008   6.493   0.974
 6815TIP3   OH243897   0.310   6.545   1.171
 6815TIP3    H143898   0.279   6.476   1.231
 6815TIP3    H243899   0.377   6.589   1.227
 6816TIP3   OH243900   1.402   6.820   0.874
 6816TIP3    H143901   1.369   6.772   0.952
 6816TIP3    H243902   1.406   6.910   0.908
 6817TIP3   OH243903   0.357   7.008   0.992
 6817TIP3    H143904   0.349   6.913   0.966
 6817TIP3    H243905   0.446   7.000   1.028
 6818TIP3   OH243906   0.141   6.376   0.595
 6818TIP3    H143907   0.099   6.449   0.547
 6818TIP3    H243908   0.061   6.324   0.614
 6819TIP3   OH243909   0.230   6.576   0.806
 6819TIP3    H143910   0.230   6.491   0.856
 6819TIP3    H243911   0.253   6.544   0.717
 6820TIP3   OH243912   1.146   7.361   0.858
 6820TIP3    H143913   1.219   7.304   0.824
 6820TIP3    H243914   1.124   7.319   0.941
 6821TIP3   OH243915   0.912   6.804   1.092
 6821TIP3    H143916   0.947   6.746   1.022
 6821TIP3    H243917   0.995   6.838   1.131
 6822TIP3   OH243918   1.770   5.965   1.116
 6822TIP3    H143919   1.759   6.019   1.197
 6822TIP3    H243920   1.858   5.995   1.090
 6823TIP3   OH243921   1.278   6.276   1.122
 6823TIP3    H143922   1.293   6.182   1.141
 6823TIP3    H243923   1.224   6.266   1.042
 6824TIP3   OH243924   0.521   6.051   0.812
 6824TIP3    H143925   0.557   6.133   0.770
 6824TIP3    H243926   0.541   5.991   0.737
 6825TIP3   OH243927   1.287   6.085   0.689
 6825TIP3    H143928   1.353   6.037   0.745
 6825TIP3    H243929   1.346   6.147   0.645
 6826TIP3   OH243930   0.214   6.321   0.880
 6826TIP3    H143931   0.276   6.267   0.932
 6826TIP3    H243932   0.212   6.274   0.795
 6827TIP3   OH243933   0.679   6.501   0.827
 6827TIP3    H143934   0.754   6.451   0.864
 6827TIP3    H243935   0.648   6.434   0.762
 6828TIP3   OH243936   1.787   6.100   1.362
 6828TIP3    H143937   1.753   6.188   1.334
 6828TIP3    H243938   1.797   6.114   1.458
 6829TIP3   OH243939   0.411   5.961   1.219
 6829TIP3    H143940   0.400   6.021   1.142
 6829TIP3    H243941   0.345   5.996   1.283
 6830TIP3   OH243942   1.137   6.900   0.578
 6830TIP3    H143943   1.116   6.902   0.483
 6830TIP3    H243944   1.095   6.984   0.606
 6831TIP3   OH243945   0.675   6.738   1.204
 6831TIP3    H143946   0.624   6.819   1.230
 6831TIP3    H243947   0.751   6.778   1.157
 6832TIP3   OH243948   1.505   6.017   0.839
 6832TIP3    H143949   1.503   5.966   0.922
 6832TIP3    H243950   1.584   6.071   0.854
 6833TIP3   OH243951   0.374   6.153   1.025
 6833TIP3    H143952   0.432   6.221   1.069
 6833TIP3    H243953   0.436   6.122   0.955
 6834TIP3   OH243954   0.549   6.949   1.304
 6834TIP3    H143955   0.532   7.045   1.308
 6834TIP3    H243956   0.472   6.916   1.357
 6835TIP3   OH243957   0.197   6.946   0.417
 6835TIP3    H143958   0.104   6.914   0.418
 6835TIP3    H243959   0.203   6.993   0.503
 6836TIP3   OH243960   1.490   7.123   1.113
 6836TIP3    H143961   1.394   7.108   1.099
 6836TIP3    H243962   1.502   7.205   1.063
 6837TIP3   OH243963   1.502   5.931   1.212
 6837TIP3    H143964   1.433   5.981   1.164
 6837TIP3    H243965   1.581   5.938   1.156
 6838TIP3   OH243966   0.787   5.714   0.959
 6838TIP3    H143967   0.766   5.621   0.975
 6838TIP3    H243968   0.707   5.758   0.998
 6839TIP3   OH243969   1.345   7.211   0.751
 6839TIP3    H143970   1.358   7.130   0.698
 6839TIP3    H243971   1.409   7.270   0.704
 6840TIP3   OH243972   1.448   7.015   0.589
 6840TIP3    H143973   1.408   6.980   0.507
 6840TIP3    H243974   1.435   6.944   0.653
 6841TIP3   OH243975   1.589   6.909   1.473
 6841TIP3    H143976   1.599   6.825   1.422
 6841TIP3    H243977   1.593   6.972   1.398
 6842TIP3   OH243978   1.058   6.582   0.428
 6842TIP3    H143979   0.996   6.658   0.415
 6842TIP3    H243980   1.143   6.618   0.396
 6843TIP3   OH243981   1.039   6.498   0.144
 6843TIP3    H143982   1.098   6.505   0.221
 6843TIP3    H243983   1.095   6.454   0.078
 6844TIP3   OH243984   1.793   6.534   1.272
 6844TIP3    H143985   1.739   6.616   1.282
 6844TIP3    H243986   1.842   6.557   1.189
 6845TIP3   OH243987   1.444   6.630   0.571
 6845TIP3    H143988   1.363   6.665   0.616
 6845TIP3    H243989   1.498   6.607   0.648
 6846TIP3   OH243990   1.394   6.412   1.463
 6846TIP3    H143991   1.350   6.487   1.507
 6846TIP3    H243992   1.352   6.419   1.375
 6847TIP3   OH243993   0.530   6.685   0.706
 6847TIP3    H143994   0.500   6.628   0.632
 6847TIP3    H243995   0.577   6.618   0.761
 6848TIP3   OH243996   0.695   6.983   0.975
 6848TIP3    H143997   0.726   7.004   0.885
 6848TIP3    H243998   0.771   6.937   1.014
 6849TIP3   OH243999   0.606   6.513   1.078
 6849TIP3    H144000   0.628   6.535   0.985
 6849TIP3    H244001   0.634   6.596   1.125
 6850TIP3   OH244002   1.218   7.105   1.136
 6850TIP3    H144003   1.187   7.178   1.193
 6850TIP3    H244004   1.201   7.026   1.191
 6851TIP3   OH244005   0.676   6.945   1.548
 6851TIP3    H144006   0.613   7.007   1.590
 6851TIP3    H244007   0.629   6.927   1.464
 6852TIP3   OH244008   1.306   6.570   0.334
 6852TIP3    H144009   1.362   6.638   0.377
 6852TIP3    H244010   1.324   6.593   0.240
 6853TIP3   OH244011   0.415   6.613   1.438
 6853TIP3    H144012   0.409   6.682   1.509
 6853TIP3    H244013   0.326   6.572   1.446
 6854TIP3   OH244014   1.057   7.150   0.656
 6854TIP3    H144015   1.083   7.210   0.728
 6854TIP3    H244016   1.017   7.211   0.592
 6855TIP3   OH244017   0.516   7.168   1.636
 6855TIP3    H144018   0.514   7.169   1.539
 6855TIP3    H244019   0.420   7.167   1.652
 6856TIP3   OH244020   1.697   5.712   0.301
 6856TIP3    H144021   1.601   5.703   0.283
 6856TIP3    H244022   1.715   5.800   0.263
 6857TIP3   OH244023   0.427   6.549   0.491
 6857TIP3    H144024   0.390   6.625   0.442
 6857TIP3    H244025   0.392   6.474   0.441
 6858TIP3   OH244026   1.759   7.087   0.103
 6858TIP3    H144027   1.783   7.180   0.095
 6858TIP3    H244028   1.850   7.049   0.101
 6859TIP3   OH244029   0.115   6.801   1.401
 6859TIP3    H144030   0.018   6.815   1.403
 6859TIP3    H244031   0.123   6.704   1.401
 6860TIP3   OH244032   0.102   7.119   0.984
 6860TIP3    H144033   0.178   7.055   0.981
 6860TIP3    H244034   0.114   7.143   1.078
 6861TIP3   OH244035   1.815   7.151   1.666
 6861TIP3    H144036   1.824   7.055   1.645
 6861TIP3    H244037   1.761   7.179   1.589
 6862TIP3   OH244038   0.928   7.091   1.500
 6862TIP3    H144039   0.932   7.175   1.550
 6862TIP3    H244040   0.836   7.060   1.511
 6863TIP3   OH244041   1.028   7.468   0.475
 6863TIP3    H144042   1.023   7.484   0.378
 6863TIP3    H244043   1.011   7.555   0.512
 6864TIP3   OH244044   0.386   7.331   0.662
 6864TIP3    H144045   0.398   7.309   0.757
 6864TIP3    H244046   0.307   7.277   0.638
 6865TIP3   OH244047   1.328   7.401   0.182
 6865TIP3    H144048   1.386   7.337   0.136
 6865TIP3    H244049   1.325   7.363   0.273
 6866TIP3   OH244050   1.281   7.372   0.443
 6866TIP3    H144051   1.186   7.386   0.466
 6866TIP3    H244052   1.308   7.302   0.504
 6867TIP3   OH244053   1.582   6.299   1.664
 6867TIP3    H144054   1.518   6.334   1.598
 6867TIP3    H244055   1.598   6.207   1.632
 6868TIP3   OH244056   0.342   6.912   1.456
 6868TIP3    H144057   0.325   6.906   1.552
 6868TIP3    H244058   0.253   6.887   1.424
 6869TIP3   OH244059   0.567   5.816   1.063
 6869TIP3    H144060   0.484   5.789   1.019
 6869TIP3    H244061   0.535   5.865   1.142
 6870TIP3   OH244062   1.052   5.758   1.380
 6870TIP3    H144063   1.088   5.720   1.464
 6870TIP3    H244064   0.956   5.746   1.390
 6871TIP3   OH244065   1.347   6.146   1.501
 6871TIP3    H144066   1.280   6.119   1.569
 6871TIP3    H244067   1.350   6.243   1.510
 6872TIP3   OH244068   1.415   6.636   0.093
 6872TIP3    H144069   1.398   6.693   0.017
 6872TIP3    H244070   1.511   6.652   0.103
 6873TIP3   OH244071   0.993   6.028   0.156
 6873TIP3    H144072   0.932   6.017   0.232
 6873TIP3    H244073   0.928   6.024   0.083
 6874TIP3   OH244074   0.586   6.261   1.149
 6874TIP3    H144075   0.525   6.278   1.222
 6874TIP3    H244076   0.601   6.355   1.121
 6875TIP3   OH244077   0.577   6.274   0.676
 6875TIP3    H144078   0.484   6.261   0.650
 6875TIP3    H244079   0.613   6.254   0.588
 6876TIP3   OH244080   1.154   6.358   0.532
 6876TIP3    H144081   1.110   6.437   0.491
 6876TIP3    H244082   1.160   6.295   0.458
 6877TIP3   OH244083   0.987   6.381   1.671
 6877TIP3    H144084   0.944   6.294   1.687
 6877TIP3    H244085   1.025   6.400   1.759
 6878TIP3   OH244086   1.167   6.314   0.855
 6878TIP3    H144087   1.185   6.392   0.800
 6878TIP3    H244088   1.189   6.242   0.794
 6879TIP3   OH244089   0.312   6.286   1.325
 6879TIP3    H144090   0.373   6.323   1.392
 6879TIP3    H244091   0.287   6.200   1.364
 6880TIP3   OH244092   0.720   6.081   0.077
 6880TIP3    H144093   0.661   6.024   0.126
 6880TIP3    H244094   0.663   6.151   0.041
 6881TIP3   OH244095   0.089   6.053   0.744
 6881TIP3    H144096   0.089   6.019   0.837
 6881TIP3    H244097   0.034   5.990   0.694
 6882TIP3   OH244098   0.175   6.143   0.323
 6882TIP3    H144099   0.223   6.172   0.243
 6882TIP3    H244100   0.137   6.227   0.352
 6883TIP3   OH244101   1.139   6.459   1.271
 6883TIP3    H144102   1.199   6.395   1.227
 6883TIP3    H244103   1.082   6.399   1.325
 6884TIP3   OH244104   0.855   6.029   0.774
 6884TIP3    H144105   0.791   6.065   0.838
 6884TIP3    H244106   0.923   5.987   0.831
 6885TIP3   OH244107   0.325   6.149   0.620
 6885TIP3    H144108   0.257   6.213   0.592
 6885TIP3    H244109   0.327   6.088   0.544
 6886TIP3   OH244110   0.583   6.202   0.418
 6886TIP3    H144111   0.679   6.213   0.424
 6886TIP3    H244112   0.565   6.243   0.329
 6887TIP3   OH244113   1.281   6.000   1.054
 6887TIP3    H144114   1.225   5.977   1.130
 6887TIP3    H244115   1.260   5.931   0.989
 6888TIP3   OH244116   0.573   6.331   0.181
 6888TIP3    H144117   0.508   6.341   0.109
 6888TIP3    H244118   0.654   6.368   0.140
 6889TIP3   OH244119   1.566   7.542   1.706
 6889TIP3    H144120   1.579   7.574   1.615
 6889TIP3    H244121   1.619   7.607   1.756
 6890TIP3   OH244122   0.386   6.764   1.685
 6890TIP3    H144123   0.453   6.802   1.746
 6890TIP3    H244124   0.306   6.782   1.737
 6891TIP3   OH244125   0.901   6.325   0.912
 6891TIP3    H144126   0.997   6.306   0.899
 6891TIP3    H244127   0.888   6.279   0.995
 6892TIP3   OH244128   0.519   5.896   0.602
 6892TIP3    H144129   0.464   5.820   0.578
 6892TIP3    H244130   0.569   5.908   0.520
 6893TIP3   OH244131   0.823   6.141   1.208
 6893TIP3    H144132   0.752   6.201   1.179
 6893TIP3    H244133   0.884   6.201   1.255
 6894TIP3   OH244134   0.888   6.791   0.402
 6894TIP3    H144135   0.818   6.746   0.351
 6894TIP3    H244136   0.837   6.812   0.485
 6895TIP3   OH244137   1.623   6.746   1.267
 6895TIP3    H144138   1.662   6.797   1.192
 6895TIP3    H244139   1.535   6.728   1.232
 6896TIP3   OH244140   1.257   6.059   0.172
 6896TIP3    H144141   1.172   6.009   0.180
 6896TIP3    H244142   1.216   6.143   0.148
 6897TIP3   OH244143   0.983   6.808   1.526
 6897TIP3    H144144   0.996   6.792   1.620
 6897TIP3    H244145   0.969   6.904   1.522
 6898TIP3   OH244146   1.335   6.279   0.294
 6898TIP3    H144147   1.332   6.187   0.257
 6898TIP3    H244148   1.369   6.325   0.216
 6899TIP3   OH244149   0.408   6.748   0.952
 6899TIP3    H144150   0.427   6.735   0.857
 6899TIP3    H244151   0.420   6.658   0.987
 6900TIP3   OH244152   1.094   6.911   0.290
 6900TIP3    H144153   1.054   7.000   0.302
 6900TIP3    H244154   1.022   6.852   0.322
 6901TIP3   OH244155   0.148   6.515   1.443
 6901TIP3    H144156   0.152   6.502   1.540
 6901TIP3    H244157   0.050   6.511   1.431
 6902TIP3   OH244158   0.756   6.523   1.652
 6902TIP3    H144159   0.715   6.458   1.594
 6902TIP3    H244160   0.843   6.480   1.669
 6903TIP3   OH244161   1.264   7.056   1.510
 6903TIP3    H144162   1.181   7.075   1.465
 6903TIP3    H244163   1.248   7.102   1.595
 6904TIP3   OH244164   1.789   6.291   0.340
 6904TIP3    H144165   1.741   6.267   0.259
 6904TIP3    H244166   1.799   6.388   0.325
 6905TIP3   OH244167   1.839   6.900   1.584
 6905TIP3    H144168   1.747   6.905   1.548
 6905TIP3    H244169   1.887   6.878   1.500
 6906TIP3   OH244170   1.637   7.136   0.345
 6906TIP3    H144171   1.594   7.053   0.373
 6906TIP3    H244172   1.679   7.111   0.261
 6907TIP3   OH244173   1.354   6.643   1.083
 6907TIP3    H144174   1.271   6.608   1.046
 6907TIP3    H244175   1.420   6.586   1.041
 6908TIP3   OH244176   0.627   7.077   0.694
 6908TIP3    H144177   0.635   7.165   0.652
 6908TIP3    H244178   0.535   7.055   0.671
 6909TIP3   OH244179   0.189   6.536   0.159
 6909TIP3    H144180   0.267   6.584   0.192
 6909TIP3    H244181   0.116   6.590   0.192
 6910TIP3   OH244182   0.739   6.838   0.627
 6910TIP3    H144183   0.708   6.928   0.651
 6910TIP3    H244184   0.674   6.781   0.673
 6911TIP3   OH244185   0.814   7.279   1.283
 6911TIP3    H144186   0.857   7.361   1.253
 6911TIP3    H244187   0.883   7.244   1.342
 6912TIP3   OH244188   0.631   7.334   0.572
 6912TIP3    H144189   0.535   7.338   0.590
 6912TIP3    H244190   0.668   7.390   0.642
 6913TIP3   OH244191   1.132   6.845   1.243
 6913TIP3    H144192   1.096   6.812   1.328
 6913TIP3    H244193   1.187   6.770   1.213
 6914TIP3   OH244194   1.405   7.009   0.188
 6914TIP3    H144195   1.425   6.947   0.260
 6914TIP3    H244196   1.310   6.990   0.176
 6915TIP3   OH244197   1.419   7.315   1.476
 6915TIP3    H144198   1.342   7.268   1.437
 6915TIP3    H244199   1.430   7.392   1.415
 6916TIP3   OH244200   1.861   7.399   0.177
 6916TIP3    H144201   1.846   7.380   0.082
 6916TIP3    H244202   1.774   7.433   0.206
 6917TIP3   OH244203   0.225   6.046   1.414
 6917TIP3    H144204   0.155   6.102   1.449
 6917TIP3    H244205   0.222   5.968   1.471
 6918TIP3   OH244206   1.487   6.820   0.381
 6918TIP3    H144207   1.472   6.754   0.452
 6918TIP3    H244208   1.584   6.825   0.387
 6919TIP3   OH244209   0.203   7.190   1.242
 6919TIP3    H144210   0.275   7.138   1.282
 6919TIP3    H244211   0.161   7.220   1.327
 6920TIP3   OH244212   0.699   7.019   0.234
 6920TIP3    H144213   0.754   6.962   0.291
 6920TIP3    H244214   0.702   7.106   0.280
 6921TIP3   OH244215   0.312   6.726   0.321
 6921TIP3    H144216   0.255   6.801   0.350
 6921TIP3    H244217   0.379   6.776   0.273
 6922TIP3   OH244218   1.162   6.023   1.331
 6922TIP3    H144219   1.238   6.038   1.389
 6922TIP3    H244220   1.121   5.945   1.372
 6923TIP3   OH244221   1.192   5.989   0.461
 6923TIP3    H144222   1.254   6.019   0.394
 6923TIP3    H244223   1.238   6.007   0.546
 6924TIP3   OH244224   0.977   7.172   0.321
 6924TIP3    H144225   0.886   7.203   0.303
 6924TIP3    H244226   1.027   7.207   0.244
 6925TIP3   OH244227   0.907   6.155   0.518
 6925TIP3    H144228   0.949   6.237   0.546
 6925TIP3    H244229   0.871   6.120   0.602
 6926TIP3   OH244230   1.032   6.270   1.425
 6926TIP3    H144231   1.027   6.312   1.514
 6926TIP3    H244232   1.058   6.179   1.447
 6927TIP3   OH244233   0.985   5.840   0.558
 6927TIP3    H144234   0.963   5.898   0.634
 6927TIP3    H244235   1.066   5.889   0.527
 6928TIP3   OH244236   0.723   7.286   0.313
 6928TIP3    H144237   0.730   7.372   0.267
 6928TIP3    H244238   0.683   7.314   0.398
 6929TIP3   OH244239   0.561   5.947   0.315
 6929TIP3    H144240   0.538   6.039   0.339
 6929TIP3    H244241   0.659   5.951   0.320
 6930TIP3   OH244242   1.586   6.050   1.561
 6930TIP3    H144243   1.489   6.054   1.547
 6930TIP3    H244244   1.611   6.032   1.468
 6931TIP3   OH244245   1.462   6.398   0.891
 6931TIP3    H144246   1.391   6.348   0.934
 6931TIP3    H244247   1.537   6.376   0.950
 6932TIP3   OH244248   0.420   7.014   0.153
 6932TIP3    H144249   0.476   7.058   0.217
 6932TIP3    H244250   0.481   6.946   0.117
 6933TIP3   OH244251   0.275   6.273   0.121
 6933TIP3    H144252   0.237   6.363   0.128
 6933TIP3    H244253   0.262   6.250   0.027
 6934TIP3   OH244254   1.589   7.399   1.108
 6934TIP3    H144255   1.568   7.445   1.023
 6934TIP3    H244256   1.686   7.389   1.099
 6935TIP3   OH244257   0.323   5.753   0.953
 6935TIP3    H144258   0.286   5.710   0.873
 6935TIP3    H244259   0.307   5.676   1.013
 6936TIP3   OH244260   0.195   7.169   0.578
 6936TIP3    H144261   0.099   7.175   0.566
 6936TIP3    H244262   0.221   7.200   0.488
 6937TIP3   OH244263   0.161   7.415   1.765
 6937TIP3    H144264   0.215   7.379   1.837
 6937TIP3    H244265   0.184   7.354   1.690
 6938TIP3   OH244266   0.645   7.305   1.837
 6938TIP3    H144267   0.677   7.231   1.891
 6938TIP3    H244268   0.596   7.259   1.765
 6939TIP3   OH244269   1.098   7.249   0.085
 6939TIP3    H144270   1.041   7.214   0.012
 6939TIP3    H244271   1.168   7.290   0.033
 6940TIP3   OH244272   1.225   7.178   1.745
 6940TIP3    H144273   1.179   7.111   1.799
 6940TIP3    H244274   1.295   7.203   1.808
 6941TIP3   OH244275   1.498   7.226   0.033
 6941TIP3    H144276   1.497   7.151   0.098
 6941TIP3    H244277   1.590   7.224   0.002
 6942TIP3   OH244278   0.162   6.820   1.851
 6942TIP3    H144279   0.199   6.759   1.918
 6942TIP3    H244280   0.097   6.765   1.802
 6943TIP3   OH244281   0.568   6.811   0.056
 6943TIP3    H144282   0.636   6.797   0.124
 6943TIP3    H244283   0.607   6.767  -0.022
 6944TIP3   OH244284   0.783   6.772   1.726
 6944TIP3    H144285   0.760   6.832   1.652
 6944TIP3    H244286   0.776   6.683   1.683
 6945TIP3   OH244287   1.345   6.777   1.508
 6945TIP3    H144288   1.424   6.836   1.503
 6945TIP3    H244289   1.278   6.848   1.509
 6946TIP3   OH244290   0.193   6.476   1.732
 6946TIP3    H144291   0.268   6.414   1.735
 6946TIP3    H244292   0.209   6.530   1.811
 6947TIP3   OH244293   0.699   6.652   0.252
 6947TIP3    H144294   0.627   6.607   0.298
 6947TIP3    H244295   0.725   6.583   0.188
 6948TIP3   OH244296   0.560   6.392   1.402
 6948TIP3    H144297   0.517   6.477   1.429
 6948TIP3    H244298   0.642   6.432   1.367
 6949TIP3   OH244299   0.780   6.451   0.064
 6949TIP3    H144300   0.807   6.453  -0.029
 6949TIP3    H244301   0.869   6.464   0.108
 6950TIP3   OH244302   1.135   6.681   1.829
 6950TIP3    H144303   1.184   6.624   1.768
 6950TIP3    H244304   1.087   6.616   1.883
 6951TIP3   OH244305   1.683   6.702   8.519
 6951TIP3    H144306   1.654   6.680   8.429
 6951TIP3    H244307   1.704   6.796   8.513
 6952TIP3   OH244308   0.633   6.165   1.561
 6952TIP3    H144309   0.650   6.087   1.504
 6952TIP3    H244310   0.605   6.232   1.496
 6953TIP3   OH244311   0.665   5.977   1.340
 6953TIP3    H144312   0.731   6.025   1.284
 6953TIP3    H244313   0.582   6.010   1.300
 6954TIP3   OH244314   0.820   6.543   1.337
 6954TIP3    H144315   0.906   6.586   1.334
 6954TIP3    H244316   0.763   6.617   1.307
 6955TIP3   OH244317   1.280   6.280   1.860
 6955TIP3    H144318   1.317   6.193   1.880
 6955TIP3    H244319   1.360   6.333   1.846
 6956TIP3   OH244320   1.425   6.614   1.709
 6956TIP3    H144321   1.380   6.658   1.633
 6956TIP3    H244322   1.517   6.615   1.678
 6957TIP3   OH244323   0.394   6.289   1.717
 6957TIP3    H144324   0.357   6.211   1.764
 6957TIP3    H244325   0.473   6.248   1.679
 6958TIP3   OH244326   0.780   5.729   1.344
 6958TIP3    H144327   0.736   5.816   1.347
 6958TIP3    H244328   0.708   5.671   1.314
 6959TIP3   OH244329   0.885   6.129   1.704
 6959TIP3    H144330   0.868   6.087   1.789
 6959TIP3    H244331   0.793   6.140   1.671
 6960TIP3   OH244332   1.152   6.069   1.667
 6960TIP3    H144333   1.054   6.077   1.670
 6960TIP3    H244334   1.167   6.012   1.744
 6961TIP3   OH244335   1.348   5.944   1.868
 6961TIP3    H144336   1.325   5.850   1.852
 6961TIP3    H244337   1.319   5.956   1.962
 6962TIP3   OH244338   0.290   6.049   1.799
 6962TIP3    H144339   0.284   5.958   1.765
 6962TIP3    H244340   0.312   6.033   1.892
 6963TIP3   OH244341   0.755   5.703   1.637
 6963TIP3    H144342   0.821   5.633   1.647
 6963TIP3    H244343   0.765   5.719   1.542
 6964TIP3   OH244344   0.802   5.842   1.877
 6964TIP3    H144345   0.787   5.779   1.803
 6964TIP3    H244346   0.723   5.898   1.872
 6965TIP3   OH244347   0.776   7.512   0.161
 6965TIP3    H144348   0.867   7.543   0.178
 6965TIP3    H244349   0.750   7.568   0.086
 6966TIP3   OH244350   0.177   6.975   0.069
 6966TIP3    H144351   0.254   6.994   0.127
 6966TIP3    H244352   0.214   7.002  -0.017
 6967TIP3   OH244353   0.048   7.541   0.571
 6967TIP3    H144354  -0.047   7.518   0.585
 6967TIP3    H244355   0.083   7.480   0.639
 6968TIP3   OH244356   0.116   7.368   0.791
 6968TIP3    H144357   0.103   7.273   0.774
 6968TIP3    H244358   0.148   7.368   0.883
 6969TIP3   OH244359   1.859   7.421   1.108
 6969TIP3    H144360   1.859   7.464   1.196
 6969TIP3    H244361   1.880   7.499   1.055
 6970TIP3   OH244362   1.784   7.334   1.400
 6970TIP3    H144363   1.745   7.252   1.363
 6970TIP3    H244364   1.870   7.335   1.354
 6971TIP3   OH244365   1.641   6.955   1.899
 6971TIP3    H144366   1.573   6.893   1.870
 6971TIP3    H244367   1.654   7.010   1.821
 6972TIP3   OH244368   1.751   6.762   0.407
 6972TIP3    H144369   1.835   6.810   0.419
 6972TIP3    H244370   1.743   6.718   0.495
 6973TIP3   OH244371   1.781   6.611   0.633
 6973TIP3    H144372   1.720   6.537   0.656
 6973TIP3    H244373   1.852   6.603   0.701
 6974TIP3   OH244374   1.761   6.838   1.062
 6974TIP3    H144375   1.830   6.769   1.054
 6974TIP3    H244376   1.812   6.919   1.042
 6975TIP3   OH244377   1.649   7.124   1.324
 6975TIP3    H144378   1.576   7.175   1.362
 6975TIP3    H244379   1.613   7.116   1.232
 6976TIP3   OH244380   1.773   6.548   0.244
 6976TIP3    H144381   1.740   6.593   0.164
 6976TIP3    H244382   1.764   6.620   0.310
 6977TIP3   OH244383   1.586   6.280   0.093
 6977TIP3    H144384   1.664   6.329   0.059
 6977TIP3    H244385   1.601   6.196   0.047
 6978TIP3   OH244386   1.605   6.404   0.668
 6978TIP3    H144387   1.595   6.311   0.641
 6978TIP3    H244388   1.563   6.404   0.757
 6979TIP3   OH244389   0.136   6.712   1.041
 6979TIP3    H144390   0.184   6.692   0.960
 6979TIP3    H244391   0.203   6.676   1.102
 6980TIP3   OH244392   1.694   6.638   1.625
 6980TIP3    H144393   1.741   6.564   1.667
 6980TIP3    H244394   1.765   6.698   1.599
 6981TIP3   OH244395   1.841   6.424   1.702
 6981TIP3    H144396   1.759   6.380   1.674
 6981TIP3    H244397   1.886   6.352   1.749
 6982TIP3   OH244398   1.568   6.036  -0.015
 6982TIP3    H144399   1.617   5.982   0.050
 6982TIP3    H244400   1.477   6.031   0.020
 6983TIP3   OH244401   1.514   6.204   0.505
 6983TIP3    H144402   1.533   6.115   0.542
 6983TIP3    H244403   1.565   6.197   0.422
 6984TIP3   OH244404   1.655   6.252   1.070
 6984TIP3    H144405   1.751   6.262   1.086
 6984TIP3    H244406   1.622   6.268   1.160
 6985TIP3   OH244407   1.634   6.323   1.340
 6985TIP3    H144408   1.552   6.353   1.385
 6985TIP3    H244409   1.684   6.408   1.328
 6986TIP3   OH244410   0.076   6.132   1.667
 6986TIP3    H144411   0.159   6.173   1.699
 6986TIP3    H244412   0.103   6.039   1.669
 6987TIP3   OH244413   1.828   5.730   1.833
 6987TIP3    H144414   1.885   5.668   1.782
 6987TIP3    H244415   1.867   5.815   1.802
 6988TIP3   OH244416   1.558   5.925   0.542
 6988TIP3    H144417   1.619   5.895   0.612
 6988TIP3    H244418   1.554   5.847   0.486
 6989TIP3   OH244419   0.163   5.983   0.987
 6989TIP3    H144420   0.215   5.908   1.021
 6989TIP3    H244421   0.190   6.058   1.044
 6990TIP3   OH244422   0.048   6.292   1.090
 6990TIP3    H144423   0.108   6.302   1.013
 6990TIP3    H244424   0.096   6.340   1.159
 6991TIP3   OH244425   1.827   5.953   1.649
 6991TIP3    H144426   1.755   6.008   1.684
 6991TIP3    H244427   1.778   5.887   1.598
 6992TIP3   OH244428   1.775   5.932   0.149
 6992TIP3    H144429   1.859   5.900   0.112
 6992TIP3    H244430   1.797   6.025   0.166
 6993TIP3   OH244431   0.058   5.912   0.445
 6993TIP3    H144432  -0.038   5.920   0.464
 6993TIP3    H244433   0.069   5.970   0.369
 6994TIP3   OH244434   1.492   7.395   0.637
 6994TIP3    H144435   1.587   7.400   0.618
 6994TIP3    H244436   1.481   7.468   0.702
 6995TIP3   OH244437   0.044   5.750   1.346
 6995TIP3    H144438  -0.051   5.741   1.368
 6995TIP3    H244439   0.035   5.807   1.270
 6996TIP3   OH244440   0.268   7.086   1.815
 6996TIP3    H144441   0.230   7.111   1.728
 6996TIP3    H244442   0.198   7.109   1.876
 6997TIP3   OH244443   0.567   7.211   1.368
 6997TIP3    H144444   0.522   7.296   1.349
 6997TIP3    H244445   0.658   7.233   1.337
 6998TIP3   OH244446   0.972   7.330   1.628
 6998TIP3    H144447   0.960   7.314   1.725
 6998TIP3    H244448   1.068   7.346   1.627
 6999TIP3   OH244449   1.231   7.516   1.574
 6999TIP3    H144450   1.277   7.434   1.548
 6999TIP3    H244451   1.249   7.519   1.672
 7000TIP3   OH244452   1.705   5.723   1.488
 7000TIP3    H144453   1.627   5.763   1.449
 7000TIP3    H244454   1.707   5.636   1.443
 7001TIP3   OH244455   0.277   7.529   1.381
 7001TIP3    H144456   0.190   7.536   1.339
 7001TIP3    H244457   0.254   7.547   1.474
 7002TIP3   OH244458   0.503   7.448   1.271
 7002TIP3    H144459   0.415   7.472   1.309
 7002TIP3    H244460   0.486   7.464   1.178
 7003TIP3   OH244461   1.000   7.465   1.170
 7003TIP3    H144462   0.932   7.496   1.106
 7003TIP3    H244463   1.006   7.541   1.232
 7004TIP3   OH244464   1.185   7.318   1.300
 7004TIP3    H144465   1.109   7.368   1.262
 7004TIP3    H244466   1.256   7.378   1.274
 7005TIP3   OH244467   1.442   7.518   1.288
 7005TIP3    H144468   1.428   7.606   1.253
 7005TIP3    H244469   1.487   7.475   1.212
 7006TIP3   OH244470   0.236   7.365   1.033
 7006TIP3    H144471   0.213   7.299   1.103
 7006TIP3    H244472   0.315   7.321   0.994
 7007TIP3   OH244473   0.451   7.271   0.911
 7007TIP3    H144474   0.453   7.176   0.936
 7007TIP3    H244475   0.531   7.301   0.960
 7008TIP3   OH244476   0.663   7.280   1.062
 7008TIP3    H144477   0.700   7.190   1.045
 7008TIP3    H244478   0.707   7.299   1.147
 7009TIP3   OH244479   1.012   5.828   0.877
 7009TIP3    H144480   0.924   5.798   0.910
 7009TIP3    H244481   1.071   5.755   0.898
 7010TIP3   OH244482   1.584   5.691   0.911
 7010TIP3    H144483   1.642   5.748   0.855
 7010TIP3    H244484   1.494   5.721   0.884
 7011TIP3   OH244485   1.739   5.801   0.722
 7011TIP3    H144486   1.802   5.737   0.680
 7011TIP3    H244487   1.799   5.876   0.743
 7012TIP3   OH244488   0.300   5.723   0.676
 7012TIP3    H144489   0.218   5.712   0.621
 7012TIP3    H244490   0.327   5.629   0.679
 7013TIP3   OH244491   0.166   5.694   0.270
 7013TIP3    H144492   0.200   5.758   0.203
 7013TIP3    H244493   0.118   5.755   0.329
 7014TIP3   OH244494   0.742   5.697   0.691
 7014TIP3    H144495   0.814   5.761   0.685
 7014TIP3    H244496   0.735   5.692   0.788
 7015TIP3   OH244497   1.323   5.739   0.831
 7015TIP3    H144498   1.283   5.785   0.756
 7015TIP3    H244499   1.269   5.657   0.837
 7016TIP3   OH244500   1.446   5.692   0.349
 7016TIP3    H144501   1.372   5.708   0.288
 7016TIP3    H244502   1.401   5.633   0.415
 7017TIP3   OH244503   0.211   7.320   0.341
 7017TIP3    H144504   0.115   7.302   0.344
 7017TIP3    H244505   0.214   7.412   0.308
 7018TIP3   OH244506   0.276   5.877   0.106
 7018TIP3    H144507   0.349   5.860   0.045
 7018TIP3    H244508   0.319   5.939   0.168
 7019TIP3   OH244509   0.829   5.960   0.359
 7019TIP3    H144510   0.882   5.897   0.411
 7019TIP3    H244511   0.860   6.042   0.406
 7020TIP3   OH244512   1.066   7.493   0.209
 7020TIP3    H144513   1.161   7.468   0.201
 7020TIP3    H244514   1.029   7.410   0.172
 7021TIP3   OH244515   1.715   7.355   0.485
 7021TIP3    H144516   1.679   7.272   0.444
 7021TIP3    H244517   1.684   7.421   0.420
 7022TIP3   OH244518   0.267   5.778   1.644
 7022TIP3    H144519   0.208   5.700   1.656
 7022TIP3    H244520   0.343   5.747   1.697
 7023TIP3   OH244521   0.481   5.705   1.831
 7023TIP3    H144522   0.556   5.742   1.781
 7023TIP3    H244523   0.522   5.618   1.853
 7024TIP3   OH244524   0.408   7.413   0.075
 7024TIP3    H144525   0.353   7.439   0.151
 7024TIP3    H244526   0.431   7.322   0.101
 7025TIP3   OH244527   1.324   5.676   1.833
 7025TIP3    H144528   1.318   5.601   1.896
 7025TIP3    H244529   1.413   5.660   1.795
 7026TIP3   OH244530   1.569   7.281   1.700
 7026TIP3    H144531   1.506   7.246   1.634
 7026TIP3    H244532   1.549   7.378   1.690
 7027TIP3   OH244533   3.069   6.653   0.685
 7027TIP3    H144534   3.061   6.750   0.681
 7027TIP3    H244535   2.991   6.627   0.634
 7028TIP3   OH244536   2.956   6.547   1.022
 7028TIP3    H144537   2.965   6.512   1.114
 7028TIP3    H244538   2.888   6.488   0.983
 7029TIP3   OH244539   2.174   6.525   1.176
 7029TIP3    H144540   2.170   6.452   1.242
 7029TIP3    H244541   2.267   6.552   1.189
 7030TIP3   OH244542   3.296   6.825   0.872
 7030TIP3    H144543   3.281   6.764   0.948
 7030TIP3    H244544   3.301   6.911   0.916
 7031TIP3   OH244545   2.289   7.010   1.012
 7031TIP3    H144546   2.256   6.922   0.985
 7031TIP3    H244547   2.384   6.994   0.997
 7032TIP3   OH244548   1.956   6.318   0.564
 7032TIP3    H144549   1.965   6.411   0.587
 7032TIP3    H244550   1.867   6.315   0.524
 7033TIP3   OH244551   1.992   6.558   0.829
 7033TIP3    H144552   2.020   6.464   0.833
 7033TIP3    H244553   2.075   6.607   0.818
 7034TIP3   OH244554   3.042   7.360   0.891
 7034TIP3    H144555   3.116   7.308   0.851
 7034TIP3    H244556   2.996   7.293   0.941
 7035TIP3   OH244557   2.789   6.809   1.106
 7035TIP3    H144558   2.826   6.756   1.032
 7035TIP3    H244559   2.872   6.839   1.150
 7036TIP3   OH244560   3.645   5.979   1.101
 7036TIP3    H144561   3.648   6.038   1.180
 7036TIP3    H244562   3.728   6.005   1.057
 7037TIP3   OH244563   3.127   6.263   1.132
 7037TIP3    H144564   3.151   6.169   1.140
 7037TIP3    H244565   3.111   6.266   1.035
 7038TIP3   OH244566   2.438   6.055   0.815
 7038TIP3    H144567   2.459   6.132   0.758
 7038TIP3    H244568   2.386   6.001   0.752
 7039TIP3   OH244569   3.174   6.089   0.677
 7039TIP3    H144570   3.229   6.053   0.750
 7039TIP3    H244571   3.236   6.148   0.633
 7040TIP3   OH244572   2.055   6.291   0.878
 7040TIP3    H144573   2.116   6.253   0.944
 7040TIP3    H244574   2.101   6.262   0.796
 7041TIP3   OH244575   2.583   6.482   0.854
 7041TIP3    H144576   2.667   6.439   0.879
 7041TIP3    H244577   2.553   6.417   0.788
 7042TIP3   OH244578   3.658   6.097   1.351
 7042TIP3    H144579   3.621   6.187   1.330
 7042TIP3    H244580   3.696   6.115   1.438
 7043TIP3   OH244581   2.346   5.946   1.201
 7043TIP3    H144582   2.304   6.008   1.138
 7043TIP3    H244583   2.287   5.955   1.277
 7044TIP3   OH244584   3.011   6.902   0.577
 7044TIP3    H144585   3.009   6.900   0.479
 7044TIP3    H244586   2.968   6.988   0.596
 7045TIP3   OH244587   2.540   6.746   1.195
 7045TIP3    H144588   2.488   6.826   1.221
 7045TIP3    H244589   2.621   6.787   1.158
 7046TIP3   OH244590   3.360   6.021   0.874
 7046TIP3    H144591   3.380   5.956   0.942
 7046TIP3    H244592   3.439   6.077   0.880
 7047TIP3   OH244593   2.294   6.152   1.023
 7047TIP3    H144594   2.350   6.220   1.067
 7047TIP3    H244595   2.351   6.124   0.947
 7048TIP3   OH244596   2.415   6.957   1.309
 7048TIP3    H144597   2.390   7.040   1.264
 7048TIP3    H244598   2.328   6.933   1.348
 7049TIP3   OH244599   2.007   6.873   0.407
 7049TIP3    H144600   2.004   6.929   0.327
 7049TIP3    H244601   2.016   6.940   0.477
 7050TIP3   OH244602   3.376   7.104   1.100
 7050TIP3    H144603   3.278   7.104   1.097
 7050TIP3    H244604   3.398   7.168   1.031
 7051TIP3   OH244605   3.374   5.939   1.207
 7051TIP3    H144606   3.292   5.970   1.162
 7051TIP3    H244607   3.446   5.969   1.149
 7052TIP3   OH244608   2.678   5.692   0.973
 7052TIP3    H144609   2.662   5.600   0.948
 7052TIP3    H244610   2.585   5.722   0.986
 7053TIP3   OH244611   3.221   7.220   0.749
 7053TIP3    H144612   3.235   7.136   0.701
 7053TIP3    H244613   3.285   7.277   0.699
 7054TIP3   OH244614   3.322   7.008   0.598
 7054TIP3    H144615   3.298   6.960   0.516
 7054TIP3    H244616   3.318   6.937   0.664
 7055TIP3   OH244617   3.473   6.889   1.457
 7055TIP3    H144618   3.473   6.818   1.388
 7055TIP3    H244619   3.488   6.969   1.403
 7056TIP3   OH244620   2.928   6.579   0.429
 7056TIP3    H144621   2.866   6.652   0.404
 7056TIP3    H244622   3.011   6.606   0.384
 7057TIP3   OH244623   2.931   6.513   0.127
 7057TIP3    H144624   3.009   6.536   0.183
 7057TIP3    H244625   2.958   6.427   0.094
 7058TIP3   OH244626   3.672   6.529   1.236
 7058TIP3    H144627   3.614   6.607   1.250
 7058TIP3    H244628   3.726   6.563   1.162
 7059TIP3   OH244629   3.309   6.605   0.542
 7059TIP3    H144630   3.231   6.624   0.599
 7059TIP3    H244631   3.365   6.552   0.603
 7060TIP3   OH244632   3.280   6.436   1.427
 7060TIP3    H144633   3.271   6.524   1.467
 7060TIP3    H244634   3.216   6.444   1.354
 7061TIP3   OH244635   2.420   6.647   0.708
 7061TIP3    H144636   2.419   6.610   0.617
 7061TIP3    H244637   2.488   6.596   0.754
 7062TIP3   OH244638   2.592   7.001   0.998
 7062TIP3    H144639   2.603   7.003   0.902
 7062TIP3    H244640   2.673   6.954   1.027
 7063TIP3   OH244641   2.452   6.526   1.087
 7063TIP3    H144642   2.495   6.517   0.999
 7063TIP3    H244643   2.503   6.602   1.125
 7064TIP3   OH244644   3.104   7.110   1.142
 7064TIP3    H144645   3.070   7.184   1.196
 7064TIP3    H244646   3.099   7.034   1.203
 7065TIP3   OH244647   2.577   6.979   1.533
 7065TIP3    H144648   2.514   7.042   1.573
 7065TIP3    H244649   2.527   6.953   1.452
 7066TIP3   OH244650   3.164   6.547   0.307
 7066TIP3    H144651   3.220   6.569   0.385
 7066TIP3    H244652   3.213   6.593   0.235
 7067TIP3   OH244653   2.294   6.604   1.453
 7067TIP3    H144654   2.280   6.698   1.440
 7067TIP3    H244655   2.208   6.574   1.488
 7068TIP3   OH244656   2.921   7.164   0.642
 7068TIP3    H144657   2.977   7.211   0.705
 7068TIP3    H244658   2.889   7.233   0.581
 7069TIP3   OH244659   2.382   7.153   1.606
 7069TIP3    H144660   2.365   7.157   1.509
 7069TIP3    H244661   2.371   7.245   1.634
 7070TIP3   OH244662   3.570   5.683   0.322
 7070TIP3    H144663   3.472   5.695   0.316
 7070TIP3    H244664   3.600   5.768   0.288
 7071TIP3   OH244665   2.332   6.547   0.434
 7071TIP3    H144666   2.290   6.634   0.413
 7071TIP3    H244667   2.263   6.485   0.411
 7072TIP3   OH244668   3.651   7.119   0.128
 7072TIP3    H144669   3.683   7.209   0.114
 7072TIP3    H244670   3.735   7.069   0.122
 7073TIP3   OH244671   1.969   6.817   1.364
 7073TIP3    H144672   1.928   6.803   1.278
 7073TIP3    H244673   2.008   6.729   1.376
 7074TIP3   OH244674   1.940   7.052   1.009
 7074TIP3    H144675   2.036   7.049   1.003
 7074TIP3    H244676   1.929   7.120   1.076
 7075TIP3   OH244677   3.745   7.151   1.622
 7075TIP3    H144678   3.720   7.058   1.634
 7075TIP3    H244679   3.661   7.193   1.654
 7076TIP3   OH244680   2.828   7.101   1.541
 7076TIP3    H144681   2.836   7.199   1.537
 7076TIP3    H244682   2.737   7.081   1.509
 7077TIP3   OH244683   2.911   7.461   0.486
 7077TIP3    H144684   2.908   7.490   0.393
 7077TIP3    H244685   2.881   7.542   0.531
 7078TIP3   OH244686   2.268   7.328   0.681
 7078TIP3    H144687   2.304   7.338   0.772
 7078TIP3    H244688   2.197   7.262   0.696
 7079TIP3   OH244689   3.208   7.415   0.180
 7079TIP3    H144690   3.272   7.355   0.136
 7079TIP3    H244691   3.194   7.367   0.265
 7080TIP3   OH244692   3.157   7.352   0.430
 7080TIP3    H144693   3.068   7.375   0.464
 7080TIP3    H244694   3.186   7.286   0.494
 7081TIP3   OH244695   3.441   6.306   1.662
 7081TIP3    H144696   3.391   6.329   1.583
 7081TIP3    H244697   3.450   6.209   1.655
 7082TIP3   OH244698   2.201   6.923   1.462
 7082TIP3    H144699   2.206   6.885   1.553
 7082TIP3    H244700   2.108   6.908   1.435
 7083TIP3   OH244701   2.437   5.774   1.011
 7083TIP3    H144702   2.342   5.770   0.987
 7083TIP3    H244703   2.432   5.840   1.084
 7084TIP3   OH244704   2.916   5.757   1.379
 7084TIP3    H144705   2.946   5.720   1.465
 7084TIP3    H244706   2.818   5.758   1.387
 7085TIP3   OH244707   3.207   6.161   1.480
 7085TIP3    H144708   3.142   6.147   1.554
 7085TIP3    H244709   3.210   6.258   1.470
 7086TIP3   OH244710   3.307   6.652   0.117
 7086TIP3    H144711   3.320   6.647   0.021
 7086TIP3    H244712   3.391   6.695   0.145
 7087TIP3   OH244713   2.882   6.051   0.114
 7087TIP3    H144714   2.884   6.043   0.212
 7087TIP3    H244715   2.888   5.958   0.088
 7088TIP3   OH244716   2.448   6.292   1.200
 7088TIP3    H144717   2.373   6.296   1.263
 7088TIP3    H244718   2.447   6.384   1.167
 7089TIP3   OH244719   2.462   6.271   0.658
 7089TIP3    H144720   2.364   6.281   0.661
 7089TIP3    H244721   2.477   6.241   0.566
 7090TIP3   OH244722   3.014   6.360   0.551
 7090TIP3    H144723   2.982   6.443   0.508
 7090TIP3    H244724   3.071   6.326   0.480
 7091TIP3   OH244725   2.884   6.395   1.683
 7091TIP3    H144726   2.834   6.315   1.707
 7091TIP3    H244727   2.961   6.387   1.742
 7092TIP3   OH244728   3.104   6.321   0.852
 7092TIP3    H144729   3.081   6.406   0.811
 7092TIP3    H244730   3.097   6.262   0.775
 7093TIP3   OH244731   2.206   6.302   1.330
 7093TIP3    H144732   2.247   6.314   1.417
 7093TIP3    H244733   2.160   6.217   1.346
 7094TIP3   OH244734   2.541   6.077   0.095
 7094TIP3    H144735   2.602   6.047   0.165
 7094TIP3    H244736   2.601   6.128   0.038
 7095TIP3   OH244737   1.903   6.008   0.761
 7095TIP3    H144738   1.970   6.019   0.830
 7095TIP3    H244739   1.948   6.046   0.683
 7096TIP3   OH244740   1.966   6.103   0.265
 7096TIP3    H144741   2.034   6.143   0.210
 7096TIP3    H244742   1.914   6.182   0.293
 7097TIP3   OH244743   3.019   6.467   1.267
 7097TIP3    H144744   3.067   6.391   1.226
 7097TIP3    H244745   2.958   6.417   1.328
 7098TIP3   OH244746   2.749   6.035   0.761
 7098TIP3    H144747   2.660   6.044   0.800
 7098TIP3    H244748   2.800   6.003   0.839
 7099TIP3   OH244749   2.197   6.215   0.661
 7099TIP3    H144750   2.117   6.237   0.609
 7099TIP3    H244751   2.219   6.125   0.628
 7100TIP3   OH244752   2.511   6.205   0.403
 7100TIP3    H144753   2.605   6.225   0.422
 7100TIP3    H244754   2.487   6.279   0.344
 7101TIP3   OH244755   3.133   5.978   1.091
 7101TIP3    H144756   3.057   5.960   1.149
 7101TIP3    H244757   3.110   5.931   1.010
 7102TIP3   OH244758   2.418   6.342   0.171
 7102TIP3    H144759   2.360   6.359   0.094
 7102TIP3    H244760   2.503   6.377   0.135
 7103TIP3   OH244761   3.412   7.552   1.731
 7103TIP3    H144762   3.444   7.584   1.645
 7103TIP3    H244763   3.493   7.562   1.785
 7104TIP3   OH244764   2.224   6.803   1.702
 7104TIP3    H144765   2.291   6.780   1.770
 7104TIP3    H244766   2.140   6.780   1.746
 7105TIP3   OH244767   2.803   6.330   0.935
 7105TIP3    H144768   2.887   6.296   0.900
 7105TIP3    H244769   2.790   6.275   1.014
 7106TIP3   OH244770   2.275   5.959   0.618
 7106TIP3    H144771   2.226   5.880   0.655
 7106TIP3    H244772   2.315   5.924   0.537
 7107TIP3   OH244773   2.675   6.160   1.205
 7107TIP3    H144774   2.592   6.214   1.210
 7107TIP3    H244775   2.736   6.213   1.258
 7108TIP3   OH244776   2.761   6.783   0.388
 7108TIP3    H144777   2.684   6.732   0.352
 7108TIP3    H244778   2.719   6.820   0.469
 7109TIP3   OH244779   3.485   6.727   1.250
 7109TIP3    H144780   3.534   6.779   1.182
 7109TIP3    H244781   3.398   6.721   1.208
 7110TIP3   OH244782   3.137   6.071   0.186
 7110TIP3    H144783   3.063   6.098   0.129
 7110TIP3    H244784   3.161   6.155   0.230
 7111TIP3   OH244785   2.926   6.826   1.553
 7111TIP3    H144786   2.863   6.761   1.586
 7111TIP3    H244787   2.868   6.902   1.536
 7112TIP3   OH244788   3.191   6.279   0.361
 7112TIP3    H144789   3.269   6.264   0.419
 7112TIP3    H244790   3.216   6.361   0.315
 7113TIP3   OH244791   2.274   6.744   0.928
 7113TIP3    H144792   2.313   6.725   0.840
 7113TIP3    H244793   2.307   6.668   0.979
 7114TIP3   OH244794   2.972   6.916   0.298
 7114TIP3    H144795   2.932   7.005   0.306
 7114TIP3    H244796   2.895   6.859   0.318
 7115TIP3   OH244797   1.979   6.547   1.479
 7115TIP3    H144798   1.950   6.492   1.554
 7115TIP3    H244799   1.918   6.518   1.409
 7116TIP3   OH244800   2.657   6.540   1.666
 7116TIP3    H144801   2.612   6.473   1.610
 7116TIP3    H244802   2.749   6.506   1.662
 7117TIP3   OH244803   3.164   7.049   1.513
 7117TIP3    H144804   3.080   7.050   1.467
 7117TIP3    H244805   3.142   7.096   1.595
 7118TIP3   OH244806   3.694   6.271   0.333
 7118TIP3    H144807   3.628   6.267   0.261
 7118TIP3    H244808   3.718   6.365   0.327
 7119TIP3   OH244809   3.716   6.857   1.591
 7119TIP3    H144810   3.630   6.878   1.549
 7119TIP3    H244811   3.773   6.849   1.511
 7120TIP3   OH244812   3.506   7.158   0.355
 7120TIP3    H144813   3.475   7.073   0.389
 7120TIP3    H244814   3.553   7.133   0.272
 7121TIP3   OH244815   3.244   6.648   1.076
 7121TIP3    H144816   3.156   6.618   1.049
 7121TIP3    H244817   3.301   6.583   1.030
 7122TIP3   OH244818   2.477   7.068   0.727
 7122TIP3    H144819   2.528   7.149   0.706
 7122TIP3    H244820   2.400   7.076   0.669
 7123TIP3   OH244821   2.062   6.546   0.163
 7123TIP3    H144822   2.120   6.619   0.194
 7123TIP3    H244823   1.973   6.585   0.170
 7124TIP3   OH244824   2.635   6.851   0.617
 7124TIP3    H144825   2.583   6.926   0.653
 7124TIP3    H244826   2.615   6.779   0.678
 7125TIP3   OH244827   2.689   7.293   1.304
 7125TIP3    H144828   2.742   7.366   1.266
 7125TIP3    H244829   2.760   7.240   1.343
 7126TIP3   OH244830   2.529   7.331   0.582
 7126TIP3    H144831   2.433   7.337   0.603
 7126TIP3    H244832   2.563   7.406   0.635
 7127TIP3   OH244833   3.018   6.853   1.248
 7127TIP3    H144834   3.015   6.827   1.342
 7127TIP3    H244835   3.067   6.779   1.209
 7128TIP3   OH244836   3.287   6.998   0.196
 7128TIP3    H144837   3.299   6.928   0.263
 7128TIP3    H244838   3.198   6.976   0.164
 7129TIP3   OH244839   3.325   7.311   1.490
 7129TIP3    H144840   3.248   7.252   1.475
 7129TIP3    H244841   3.322   7.375   1.416
 7130TIP3   OH244842   3.743   7.400   0.197
 7130TIP3    H144843   3.786   7.457   0.131
 7130TIP3    H244844   3.661   7.450   0.220
 7131TIP3   OH244845   2.123   6.044   1.417
 7131TIP3    H144846   2.027   6.056   1.412
 7131TIP3    H244847   2.130   5.965   1.472
 7132TIP3   OH244848   3.361   6.817   0.383
 7132TIP3    H144849   3.346   6.728   0.423
 7132TIP3    H244850   3.455   6.831   0.404
 7133TIP3   OH244851   2.097   7.201   1.265
 7133TIP3    H144852   2.160   7.128   1.272
 7133TIP3    H244853   2.142   7.275   1.309
 7134TIP3   OH244854   2.567   7.026   0.257
 7134TIP3    H144855   2.645   6.991   0.304
 7134TIP3    H244856   2.570   7.121   0.282
 7135TIP3   OH244857   2.215   6.749   0.295
 7135TIP3    H144858   2.141   6.790   0.345
 7135TIP3    H244859   2.260   6.826   0.257
 7136TIP3   OH244860   2.993   6.042   1.346
 7136TIP3    H144861   3.081   6.065   1.382
 7136TIP3    H244862   2.976   5.955   1.385
 7137TIP3   OH244863   3.056   5.978   0.463
 7137TIP3    H144864   3.105   6.018   0.389
 7137TIP3    H244865   3.091   6.025   0.542
 7138TIP3   OH244866   2.847   7.165   0.321
 7138TIP3    H144867   2.761   7.211   0.316
 7138TIP3    H244868   2.898   7.205   0.246
 7139TIP3   OH244869   2.775   6.159   0.510
 7139TIP3    H144870   2.851   6.220   0.519
 7139TIP3    H244871   2.763   6.122   0.599
 7140TIP3   OH244872   2.896   6.284   1.414
 7140TIP3    H144873   2.909   6.291   1.510
 7140TIP3    H244874   2.928   6.193   1.391
 7141TIP3   OH244875   2.868   5.832   0.588
 7141TIP3    H144876   2.830   5.901   0.646
 7141TIP3    H244877   2.947   5.881   0.553
 7142TIP3   OH244878   2.590   7.289   0.327
 7142TIP3    H144879   2.591   7.376   0.283
 7142TIP3    H244880   2.554   7.313   0.416
 7143TIP3   OH244881   2.447   5.952   0.330
 7143TIP3    H144882   2.475   6.033   0.377
 7143TIP3    H244883   2.529   5.899   0.335
 7144TIP3   OH244884   3.459   6.046   1.547
 7144TIP3    H144885   3.365   6.066   1.526
 7144TIP3    H244886   3.496   6.050   1.457
 7145TIP3   OH244887   3.360   6.430   0.918
 7145TIP3    H144888   3.279   6.377   0.910
 7145TIP3    H244889   3.420   6.371   0.968
 7146TIP3   OH244890   2.274   7.014   0.166
 7146TIP3    H144891   2.339   7.061   0.221
 7146TIP3    H244892   2.333   6.961   0.109
 7147TIP3   OH244893   2.149   6.283   0.103
 7147TIP3    H144894   2.132   6.377   0.129
 7147TIP3    H244895   2.071   6.269   0.047
 7148TIP3   OH244896   3.476   7.396   1.105
 7148TIP3    H144897   3.443   7.437   1.021
 7148TIP3    H244898   3.571   7.386   1.081
 7149TIP3   OH244899   2.178   5.749   0.965
 7149TIP3    H144900   2.160   5.739   0.868
 7149TIP3    H244901   2.155   5.658   0.994
 7150TIP3   OH244902   2.080   7.129   0.599
 7150TIP3    H144903   2.002   7.172   0.638
 7150TIP3    H244904   2.088   7.177   0.514
 7151TIP3   OH244905   1.987   7.376   1.726
 7151TIP3    H144906   2.068   7.397   1.777
 7151TIP3    H244907   2.008   7.287   1.692
 7152TIP3   OH244908   2.496   7.243   1.851
 7152TIP3    H144909   2.563   7.266   1.918
 7152TIP3    H244910   2.524   7.297   1.776
 7153TIP3   OH244911   2.965   7.252   0.093
 7153TIP3    H144912   2.913   7.195   0.032
 7153TIP3    H244913   3.038   7.278   0.035
 7154TIP3   OH244914   3.115   7.170   1.749
 7154TIP3    H144915   3.127   7.087   1.800
 7154TIP3    H244916   3.192   7.220   1.784
 7155TIP3   OH244917   3.376   7.243   0.048
 7155TIP3    H144918   3.383   7.173   0.116
 7155TIP3    H244919   3.458   7.233  -0.003
 7156TIP3   OH244920   1.965   6.781   1.800
 7156TIP3    H144921   1.919   6.697   1.807
 7156TIP3    H244922   1.921   6.820   1.721
 7157TIP3   OH244923   2.437   6.810   0.050
 7157TIP3    H144924   2.510   6.807   0.114
 7157TIP3    H244925   2.484   6.801  -0.034
 7158TIP3   OH244926   2.651   6.814   1.718
 7158TIP3    H144927   2.633   6.863   1.634
 7158TIP3    H244928   2.638   6.719   1.694
 7159TIP3   OH244929   3.224   6.776   1.517
 7159TIP3    H144930   3.308   6.825   1.504
 7159TIP3    H244931   3.168   6.854   1.536
 7160TIP3   OH244932   2.563   6.640   0.276
 7160TIP3    H144933   2.487   6.595   0.318
 7160TIP3    H244934   2.594   6.574   0.210
 7161TIP3   OH244935   2.485   6.414   1.474
 7161TIP3    H144936   2.416   6.483   1.482
 7161TIP3    H244937   2.542   6.454   1.406
 7162TIP3   OH244938   2.656   6.455   0.079
 7162TIP3    H144939   2.671   6.461  -0.016
 7162TIP3    H244940   2.749   6.471   0.111
 7163TIP3   OH244941   3.009   6.671   1.831
 7163TIP3    H144942   3.052   6.632   1.753
 7163TIP3    H244943   2.986   6.592   1.884
 7164TIP3   OH244944   3.571   6.723   8.496
 7164TIP3    H144945   3.535   6.722   8.406
 7164TIP3    H244946   3.608   6.812   8.503
 7165TIP3   OH244947   2.565   5.982   1.362
 7165TIP3    H144948   2.623   6.039   1.306
 7165TIP3    H244949   2.484   5.986   1.309
 7166TIP3   OH244950   2.687   6.569   1.341
 7166TIP3    H144951   2.774   6.601   1.315
 7166TIP3    H244952   2.628   6.639   1.307
 7167TIP3   OH244953   3.165   6.283   1.855
 7167TIP3    H144954   3.224   6.209   1.830
 7167TIP3    H244955   3.228   6.355   1.862
 7168TIP3   OH244956   3.310   6.605   1.708
 7168TIP3    H144957   3.273   6.660   1.636
 7168TIP3    H244958   3.401   6.588   1.674
 7169TIP3   OH244959   2.649   5.736   1.363
 7169TIP3    H144960   2.606   5.825   1.367
 7169TIP3    H244961   2.577   5.680   1.329
 7170TIP3   OH244962   2.726   6.161   1.779
 7170TIP3    H144963   2.656   6.148   1.847
 7170TIP3    H244964   2.677   6.137   1.699
 7171TIP3   OH244965   3.033   6.073   1.677
 7171TIP3    H144966   2.950   6.072   1.726
 7171TIP3    H244967   3.092   6.025   1.741
 7172TIP3   OH244968   3.176   5.926   1.859
 7172TIP3    H144969   3.173   5.834   1.825
 7172TIP3    H244970   3.187   5.908   1.954
 7173TIP3   OH244971   2.653   5.691   1.636
 7173TIP3    H144972   2.729   5.631   1.638
 7173TIP3    H244973   2.647   5.711   1.540
 7174TIP3   OH244974   2.677   5.819   1.898
 7174TIP3    H144975   2.668   5.770   1.814
 7174TIP3    H244976   2.589   5.859   1.903
 7175TIP3   OH244977   2.645   7.519   0.167
 7175TIP3    H144978   2.715   7.560   0.220
 7175TIP3    H244979   2.646   7.574   0.088
 7176TIP3   OH244980   2.004   6.988   0.094
 7176TIP3    H144981   2.098   6.982   0.122
 7176TIP3    H244982   2.013   6.967  -0.001
 7177TIP3   OH244983   1.902   7.513   0.586
 7177TIP3    H144984   1.835   7.451   0.548
 7177TIP3    H244985   1.933   7.453   0.657
 7178TIP3   OH244986   1.955   7.337   0.802
 7178TIP3    H144987   1.880   7.290   0.842
 7178TIP3    H244988   2.017   7.335   0.878
 7179TIP3   OH244989   3.743   7.428   1.073
 7179TIP3    H144990   3.753   7.466   1.162
 7179TIP3    H244991   3.768   7.505   1.020
 7180TIP3   OH244992   3.671   7.342   1.402
 7180TIP3    H144993   3.631   7.282   1.336
 7180TIP3    H244994   3.703   7.274   1.464
 7181TIP3   OH244995   3.503   6.951   1.833
 7181TIP3    H144996   3.450   6.920   1.908
 7181TIP3    H244997   3.528   7.041   1.861
 7182TIP3   OH244998   3.653   6.773   0.393
 7182TIP3    H144999   3.739   6.818   0.411
 7182TIP3    H245000   3.648   6.713   0.471
 7183TIP3   OH245001   3.674   6.602   0.616
 7183TIP3    H145002   3.600   6.550   0.654
 7183TIP3    H245003   3.738   6.603   0.690
 7184TIP3   OH245004   3.641   6.841   1.074
 7184TIP3    H145005   3.711   6.771   1.068
 7184TIP3    H245006   3.688   6.919   1.039
 7185TIP3   OH245007   3.529   7.129   1.318
 7185TIP3    H145008   3.450   7.172   1.354
 7185TIP3    H245009   3.500   7.115   1.225
 7186TIP3   OH245010   3.704   6.555   0.216
 7186TIP3    H145011   3.631   6.562   0.152
 7186TIP3    H245012   3.687   6.633   0.273
 7187TIP3   OH245013   3.490   6.287   0.092
 7187TIP3    H145014   3.558   6.324   0.033
 7187TIP3    H245015   3.500   6.193   0.068
 7188TIP3   OH245016   3.478   6.431   0.675
 7188TIP3    H145017   3.452   6.342   0.645
 7188TIP3    H245018   3.449   6.431   0.769
 7189TIP3   OH245019   1.955   6.643   1.085
 7189TIP3    H145020   1.955   6.618   0.990
 7189TIP3    H245021   2.046   6.616   1.111
 7190TIP3   OH245022   3.569   6.611   1.611
 7190TIP3    H145023   3.626   6.537   1.641
 7190TIP3    H245024   3.635   6.681   1.592
 7191TIP3   OH245025   3.703   6.375   1.667
 7191TIP3    H145026   3.610   6.352   1.689
 7191TIP3    H245027   3.748   6.289   1.683
 7192TIP3   OH245028   3.482   6.032   0.002
 7192TIP3    H145029   3.541   5.975   0.058
 7192TIP3    H245030   3.392   6.014   0.035
 7193TIP3   OH245031   3.409   6.212   0.513
 7193TIP3    H145032   3.444   6.127   0.546
 7193TIP3    H245033   3.460   6.217   0.431
 7194TIP3   OH245034   3.511   6.256   1.069
 7194TIP3    H145035   3.609   6.273   1.068
 7194TIP3    H245036   3.495   6.255   1.165
 7195TIP3   OH245037   3.523   6.323   1.337
 7195TIP3    H145038   3.438   6.351   1.379
 7195TIP3    H245039   3.562   6.410   1.313
 7196TIP3   OH245040   3.722   5.677   1.834
 7196TIP3    H145041   3.780   5.628   1.775
 7196TIP3    H245042   3.718   5.766   1.793
 7197TIP3   OH245043   3.519   5.959   0.535
 7197TIP3    H145044   3.543   5.897   0.609
 7197TIP3    H245045   3.470   5.899   0.477
 7198TIP3   OH245046   2.070   5.996   1.027
 7198TIP3    H145047   2.108   5.905   1.021
 7198TIP3    H245048   2.150   6.052   1.032
 7199TIP3   OH245049   1.915   6.287   1.118
 7199TIP3    H145050   1.943   6.241   1.037
 7199TIP3    H245051   1.964   6.371   1.111
 7200TIP3   OH245052   3.643   5.902   1.696
 7200TIP3    H145053   3.570   5.959   1.666
 7200TIP3    H245054   3.670   5.869   1.609
 7201TIP3   OH245055   3.680   5.932   0.160
 7201TIP3    H145056   3.727   5.869   0.103
 7201TIP3    H245057   3.751   5.997   0.179
 7202TIP3   OH245058   1.907   5.905   0.444
 7202TIP3    H145059   1.844   5.947   0.504
 7202TIP3    H245060   1.911   5.970   0.371
 7203TIP3   OH245061   3.361   7.401   0.628
 7203TIP3    H145062   3.456   7.394   0.603
 7203TIP3    H245063   3.361   7.481   0.684
 7204TIP3   OH245064   1.924   5.774   1.312
 7204TIP3    H145065   1.857   5.735   1.372
 7204TIP3    H245066   1.874   5.843   1.267
 7205TIP3   OH245067   2.107   7.064   1.745
 7205TIP3    H145068   2.071   7.040   1.657
 7205TIP3    H245069   2.029   7.056   1.802
 7206TIP3   OH245070   2.422   7.231   1.339
 7206TIP3    H145071   2.414   7.329   1.341
 7206TIP3    H245072   2.518   7.228   1.320
 7207TIP3   OH245073   2.874   7.349   1.638
 7207TIP3    H145074   2.875   7.355   1.736
 7207TIP3    H245075   2.959   7.393   1.617
 7208TIP3   OH245076   3.114   7.506   1.600
 7208TIP3    H145077   3.204   7.489   1.566
 7208TIP3    H245078   3.130   7.496   1.697
 7209TIP3   OH245079   3.600   5.707   1.489
 7209TIP3    H145080   3.542   5.762   1.435
 7209TIP3    H245081   3.597   5.620   1.444
 7210TIP3   OH245082   2.130   7.507   1.341
 7210TIP3    H145083   2.038   7.528   1.312
 7210TIP3    H245084   2.138   7.570   1.415
 7211TIP3   OH245085   2.394   7.485   1.302
 7211TIP3    H145086   2.297   7.491   1.321
 7211TIP3    H245087   2.395   7.498   1.206
 7212TIP3   OH245088   2.888   7.468   1.184
 7212TIP3    H145089   2.825   7.487   1.111
 7212TIP3    H245090   2.887   7.554   1.231
 7213TIP3   OH245091   3.074   7.322   1.314
 7213TIP3    H145092   3.009   7.384   1.271
 7213TIP3    H245093   3.156   7.364   1.283
 7214TIP3   OH245094   3.334   7.517   1.295
 7214TIP3    H145095   3.326   7.601   1.249
 7214TIP3    H245096   3.380   7.466   1.224
 7215TIP3   OH245097   2.118   7.318   1.017
 7215TIP3    H145098   2.111   7.261   1.097
 7215TIP3    H245099   2.213   7.316   0.996
 7216TIP3   OH245100   2.363   7.286   0.927
 7216TIP3    H145101   2.337   7.192   0.934
 7216TIP3    H245102   2.451   7.281   0.971
 7217TIP3   OH245103   2.592   7.266   1.055
 7217TIP3    H145104   2.613   7.170   1.049
 7217TIP3    H245105   2.609   7.284   1.150
 7218TIP3   OH245106   2.870   5.869   0.937
 7218TIP3    H145107   2.794   5.813   0.965
 7218TIP3    H245108   2.925   5.805   0.890
 7219TIP3   OH245109   3.451   5.683   0.909
 7219TIP3    H145110   3.517   5.737   0.859
 7219TIP3    H245111   3.366   5.714   0.869
 7220TIP3   OH245112   3.622   5.793   0.731
 7220TIP3    H145113   3.688   5.736   0.685
 7220TIP3    H245114   3.674   5.875   0.748
 7221TIP3   OH245115   2.148   5.713   0.692
 7221TIP3    H145116   2.064   5.689   0.647
 7221TIP3    H245117   2.200   5.630   0.679
 7222TIP3   OH245118   2.033   5.751   0.234
 7222TIP3    H145119   2.112   5.799   0.202
 7222TIP3    H245120   1.994   5.813   0.299
 7223TIP3   OH245121   2.587   5.685   0.692
 7223TIP3    H145122   2.678   5.702   0.665
 7223TIP3    H245123   2.573   5.745   0.767
 7224TIP3   OH245124   3.199   5.732   0.786
 7224TIP3    H145125   3.157   5.748   0.701
 7224TIP3    H245126   3.152   5.651   0.817
 7225TIP3   OH245127   3.318   5.736   0.378
 7225TIP3    H145128   3.230   5.771   0.358
 7225TIP3    H245129   3.293   5.656   0.429
 7226TIP3   OH245130   2.038   7.311   0.397
 7226TIP3    H145131   1.948   7.312   0.359
 7226TIP3    H245132   2.073   7.392   0.355
 7227TIP3   OH245133   2.253   5.892   0.158
 7227TIP3    H145134   2.294   5.860   0.076
 7227TIP3    H245135   2.320   5.867   0.227
 7228TIP3   OH245136   2.754   5.941   0.353
 7228TIP3    H145137   2.805   5.888   0.418
 7228TIP3    H245138   2.755   6.028   0.399
 7229TIP3   OH245139   2.940   7.490   0.209
 7229TIP3    H145140   3.031   7.463   0.185
 7229TIP3    H245141   2.896   7.412   0.171
 7230TIP3   OH245142   3.589   7.360   0.502
 7230TIP3    H145143   3.562   7.279   0.452
 7230TIP3    H245144   3.569   7.428   0.434
 7231TIP3   OH245145   2.158   5.796   1.632
 7231TIP3    H145146   2.092   5.735   1.668
 7231TIP3    H245147   2.233   5.777   1.693
 7232TIP3   OH245148   2.360   5.703   1.827
 7232TIP3    H145149   2.450   5.673   1.812
 7232TIP3    H245150   2.327   5.644   1.897
 7233TIP3   OH245151   2.221   7.482   0.084
 7233TIP3    H145152   2.208   7.440   0.170
 7233TIP3    H245153   2.296   7.431   0.049
 7234TIP3   OH245154   3.226   5.674   1.811
 7234TIP3    H145155   3.229   5.631   1.899
 7234TIP3    H245156   3.317   5.660   1.779
 7235TIP3   OH245157   3.517   7.278   1.692
 7235TIP3    H145158   3.456   7.305   1.620
 7235TIP3    H245159   3.550   7.363   1.727
 7236TIP3   OH245160   4.968   6.663   0.674
 7236TIP3    H145161   4.946   6.758   0.670
 7236TIP3    H245162   4.889   6.625   0.633
 7237TIP3   OH245163   4.841   6.540   1.025
 7237TIP3    H145164   4.856   6.494   1.111
 7237TIP3    H245165   4.781   6.480   0.977
 7238TIP3   OH245166   4.060   6.542   1.156
 7238TIP3    H145167   4.051   6.471   1.221
 7238TIP3    H245168   4.138   6.586   1.192
 7239TIP3   OH245169   5.191   6.848   0.896
 7239TIP3    H145170   5.180   6.776   0.961
 7239TIP3    H245171   5.175   6.926   0.951
 7240TIP3   OH245172   4.170   7.012   0.988
 7240TIP3    H145173   4.135   6.921   0.978
 7240TIP3    H245174   4.265   6.989   0.991
 7241TIP3   OH245175   3.839   6.328   0.573
 7241TIP3    H145176   3.791   6.410   0.592
 7241TIP3    H245177   3.791   6.298   0.495
 7242TIP3   OH245178   3.884   6.569   0.817
 7242TIP3    H145179   3.921   6.479   0.836
 7242TIP3    H245180   3.964   6.622   0.802
 7243TIP3   OH245181   4.895   7.368   0.851
 7243TIP3    H145182   4.975   7.314   0.830
 7243TIP3    H245183   4.859   7.311   0.921
 7244TIP3   OH245184   4.663   6.812   1.117
 7244TIP3    H145185   4.698   6.777   1.034
 7244TIP3    H245186   4.746   6.829   1.166
 7245TIP3   OH245187   5.535   5.994   1.080
 7245TIP3    H145188   5.548   6.032   1.169
 7245TIP3    H245189   5.623   6.010   1.043
 7246TIP3   OH245190   5.035   6.265   1.118
 7246TIP3    H145191   5.049   6.171   1.137
 7246TIP3    H245192   5.036   6.263   1.020
 7247TIP3   OH245193   4.316   6.054   0.802
 7247TIP3    H145194   4.333   6.131   0.745
 7247TIP3    H245195   4.271   5.995   0.738
 7248TIP3   OH245196   5.070   6.107   0.680
 7248TIP3    H145197   5.129   6.059   0.743
 7248TIP3    H245198   5.136   6.158   0.630
 7249TIP3   OH245199   3.965   6.320   0.900
 7249TIP3    H145200   4.026   6.271   0.959
 7249TIP3    H245201   3.989   6.282   0.813
 7250TIP3   OH245202   4.458   6.464   0.836
 7250TIP3    H145203   4.536   6.416   0.872
 7250TIP3    H245204   4.426   6.398   0.772
 7251TIP3   OH245205   5.560   6.102   1.353
 7251TIP3    H145206   5.526   6.187   1.317
 7251TIP3    H245207   5.572   6.127   1.447
 7252TIP3   OH245208   4.232   5.972   1.227
 7252TIP3    H145209   4.184   6.020   1.157
 7252TIP3    H245210   4.172   5.991   1.302
 7253TIP3   OH245211   4.891   6.904   0.574
 7253TIP3    H145212   4.879   6.909   0.477
 7253TIP3    H245213   4.860   6.993   0.600
 7254TIP3   OH245214   4.422   6.721   1.219
 7254TIP3    H145215   4.371   6.799   1.251
 7254TIP3    H245216   4.503   6.766   1.185
 7255TIP3   OH245217   5.255   6.012   0.845
 7255TIP3    H145218   5.204   5.972   0.917
 7255TIP3    H245219   5.341   6.030   0.887
 7256TIP3   OH245220   4.160   6.161   1.018
 7256TIP3    H145221   4.221   6.220   1.069
 7256TIP3    H245222   4.218   6.133   0.942
 7257TIP3   OH245223   4.311   6.949   1.316
 7257TIP3    H145224   4.290   7.040   1.287
 7257TIP3    H245225   4.224   6.926   1.359
 7258TIP3   OH245226   3.900   6.886   0.406
 7258TIP3    H145227   3.897   6.938   0.322
 7258TIP3    H245228   3.895   6.955   0.475
 7259TIP3   OH245229   5.252   7.107   1.119
 7259TIP3    H145230   5.154   7.103   1.109
 7259TIP3    H245231   5.272   7.179   1.057
 7260TIP3   OH245232   5.273   5.909   1.196
 7260TIP3    H145233   5.202   5.915   1.128
 7260TIP3    H245234   5.351   5.935   1.143
 7261TIP3   OH245235   4.552   5.703   0.976
 7261TIP3    H145236   4.516   5.613   0.977
 7261TIP3    H245237   4.469   5.754   0.999
 7262TIP3   OH245238   5.092   7.215   0.755
 7262TIP3    H145239   5.102   7.128   0.713
 7262TIP3    H245240   5.164   7.262   0.708
 7263TIP3   OH245241   5.240   6.989   0.599
 7263TIP3    H145242   5.240   6.928   0.521
 7263TIP3    H245243   5.214   6.929   0.671
 7264TIP3   OH245244   5.375   6.888   1.466
 7264TIP3    H145245   5.379   6.814   1.400
 7264TIP3    H245246   5.385   6.967   1.407
 7265TIP3   OH245247   4.813   6.599   0.429
 7265TIP3    H145248   4.746   6.668   0.412
 7265TIP3    H245249   4.888   6.629   0.374
 7266TIP3   OH245250   4.821   6.487   0.146
 7266TIP3    H145251   4.885   6.510   0.217
 7266TIP3    H245252   4.868   6.413   0.103
 7267TIP3   OH245253   5.583   6.539   1.271
 7267TIP3    H145254   5.518   6.612   1.267
 7267TIP3    H245255   5.630   6.557   1.186
 7268TIP3   OH245256   5.194   6.584   0.546
 7268TIP3    H145257   5.121   6.618   0.603
 7268TIP3    H245258   5.253   6.541   0.610
 7269TIP3   OH245259   5.172   6.443   1.453
 7269TIP3    H145260   5.135   6.521   1.498
 7269TIP3    H245261   5.119   6.442   1.372
 7270TIP3   OH245262   4.321   6.653   0.715
 7270TIP3    H145263   4.296   6.615   0.628
 7270TIP3    H245264   4.388   6.587   0.747
 7271TIP3   OH245265   4.467   7.011   0.984
 7271TIP3    H145266   4.490   6.992   0.891
 7271TIP3    H245267   4.539   6.965   1.031
 7272TIP3   OH245268   4.343   6.507   1.084
 7272TIP3    H145269   4.376   6.519   0.992
 7272TIP3    H245270   4.384   6.584   1.131
 7273TIP3   OH245271   4.981   7.099   1.134
 7273TIP3    H145272   4.959   7.172   1.194
 7273TIP3    H245273   4.985   7.021   1.194
 7274TIP3   OH245274   4.457   6.986   1.543
 7274TIP3    H145275   4.390   7.044   1.587
 7274TIP3    H245276   4.411   6.968   1.458
 7275TIP3   OH245277   5.043   6.558   0.309
 7275TIP3    H145278   5.098   6.579   0.388
 7275TIP3    H245279   5.094   6.599   0.235
 7276TIP3   OH245280   4.142   6.611   1.433
 7276TIP3    H145281   4.158   6.685   1.494
 7276TIP3    H245282   4.083   6.557   1.488
 7277TIP3   OH245283   4.821   7.181   0.628
 7277TIP3    H145284   4.873   7.221   0.700
 7277TIP3    H245285   4.764   7.253   0.599
 7278TIP3   OH245286   4.267   7.154   1.616
 7278TIP3    H145287   4.263   7.177   1.521
 7278TIP3    H245288   4.174   7.122   1.631
 7279TIP3   OH245289   5.446   5.682   0.328
 7279TIP3    H145290   5.351   5.696   0.312
 7279TIP3    H245291   5.480   5.769   0.300
 7280TIP3   OH245292   4.215   6.551   0.453
 7280TIP3    H145293   4.174   6.631   0.415
 7280TIP3    H245294   4.148   6.483   0.439
 7281TIP3   OH245295   5.551   7.124   0.136
 7281TIP3    H145296   5.585   7.205   0.179
 7281TIP3    H245297   5.632   7.069   0.131
 7282TIP3   OH245298   3.847   6.826   1.358
 7282TIP3    H145299   3.796   6.817   1.276
 7282TIP3    H245300   3.887   6.736   1.364
 7283TIP3   OH245301   3.814   7.068   1.010
 7283TIP3    H145302   3.905   7.053   1.039
 7283TIP3    H245303   3.796   7.154   1.051
 7284TIP3   OH245304   5.597   7.160   1.608
 7284TIP3    H145305   5.592   7.065   1.629
 7284TIP3    H245306   5.502   7.182   1.602
 7285TIP3   OH245307   4.706   7.107   1.506
 7285TIP3    H145308   4.721   7.182   1.567
 7285TIP3    H245309   4.621   7.066   1.535
 7286TIP3   OH245310   4.795   7.490   0.484
 7286TIP3    H145311   4.732   7.429   0.441
 7286TIP3    H245312   4.737   7.544   0.540
 7287TIP3   OH245313   4.156   7.346   0.656
 7287TIP3    H145314   4.172   7.332   0.753
 7287TIP3    H245315   4.098   7.269   0.636
 7288TIP3   OH245316   5.089   7.413   0.186
 7288TIP3    H145317   5.162   7.393   0.124
 7288TIP3    H245318   5.092   7.334   0.242
 7289TIP3   OH245319   5.038   7.370   0.450
 7289TIP3    H145320   4.957   7.362   0.504
 7289TIP3    H245321   5.097   7.309   0.497
 7290TIP3   OH245322   5.337   6.288   1.657
 7290TIP3    H145323   5.272   6.324   1.593
 7290TIP3    H245324   5.344   6.194   1.631
 7291TIP3   OH245325   4.091   6.922   1.453
 7291TIP3    H145326   4.101   6.891   1.546
 7291TIP3    H245327   3.995   6.918   1.440
 7292TIP3   OH245328   4.332   5.815   1.040
 7292TIP3    H145329   4.243   5.790   1.007
 7292TIP3    H245330   4.308   5.874   1.113
 7293TIP3   OH245331   4.806   5.760   1.382
 7293TIP3    H145332   4.844   5.701   1.451
 7293TIP3    H245333   4.708   5.746   1.389
 7294TIP3   OH245334   5.110   6.164   1.480
 7294TIP3    H145335   5.055   6.128   1.554
 7294TIP3    H245336   5.069   6.250   1.465
 7295TIP3   OH245337   5.178   6.654   0.106
 7295TIP3    H145338   5.215   6.587   0.048
 7295TIP3    H245339   5.249   6.722   0.110
 7296TIP3   OH245340   4.779   6.056   0.113
 7296TIP3    H145341   4.737   6.026   0.196
 7296TIP3    H245342   4.797   5.970   0.071
 7297TIP3   OH245343   4.345   6.261   1.191
 7297TIP3    H145344   4.278   6.287   1.258
 7297TIP3    H245345   4.354   6.347   1.144
 7298TIP3   OH245346   4.338   6.266   0.645
 7298TIP3    H145347   4.240   6.261   0.646
 7298TIP3    H245348   4.360   6.243   0.552
 7299TIP3   OH245349   4.879   6.373   0.551
 7299TIP3    H145350   4.856   6.454   0.500
 7299TIP3    H245351   4.952   6.338   0.495
 7300TIP3   OH245352   4.761   6.383   1.693
 7300TIP3    H145353   4.726   6.291   1.705
 7300TIP3    H245354   4.832   6.383   1.761
 7301TIP3   OH245355   5.010   6.323   0.846
 7301TIP3    H145356   4.984   6.404   0.798
 7301TIP3    H245357   5.000   6.257   0.774
 7302TIP3   OH245358   4.081   6.287   1.309
 7302TIP3    H145359   4.128   6.328   1.384
 7302TIP3    H245360   4.066   6.197   1.340
 7303TIP3   OH245361   4.430   6.073   0.084
 7303TIP3    H145362   4.393   6.017   0.156
 7303TIP3    H245363   4.400   6.162   0.111
 7304TIP3   OH245364   3.772   6.017   0.761
 7304TIP3    H145365   3.843   6.019   0.828
 7304TIP3    H245366   3.819   6.038   0.679
 7305TIP3   OH245367   3.882   6.084   0.276
 7305TIP3    H145368   3.947   6.120   0.213
 7305TIP3    H245369   3.825   6.163   0.287
 7306TIP3   OH245370   4.909   6.450   1.269
 7306TIP3    H145371   4.966   6.383   1.224
 7306TIP3    H245372   4.854   6.393   1.328
 7307TIP3   OH245373   4.622   6.045   0.767
 7307TIP3    H145374   4.530   6.045   0.798
 7307TIP3    H245375   4.671   6.006   0.841
 7308TIP3   OH245376   4.071   6.208   0.660
 7308TIP3    H145377   3.994   6.242   0.609
 7308TIP3    H245378   4.091   6.122   0.617
 7309TIP3   OH245379   4.419   6.204   0.397
 7309TIP3    H145380   4.513   6.223   0.418
 7309TIP3    H245381   4.398   6.266   0.323
 7310TIP3   OH245382   5.050   5.977   1.064
 7310TIP3    H145383   4.990   5.964   1.139
 7310TIP3    H245384   5.013   5.916   0.997
 7311TIP3   OH245385   4.349   6.320   0.162
 7311TIP3    H145386   4.279   6.310   0.095
 7311TIP3    H245387   4.414   6.375   0.113
 7312TIP3   OH245388   5.348   7.537   1.742
 7312TIP3    H145389   5.363   7.553   1.647
 7312TIP3    H245390   5.384   7.619   1.782
 7313TIP3   OH245391   4.132   6.794   1.682
 7313TIP3    H145392   4.204   6.800   1.747
 7313TIP3    H245393   4.055   6.773   1.739
 7314TIP3   OH245394   4.691   6.330   0.915
 7314TIP3    H145395   4.781   6.297   0.895
 7314TIP3    H245396   4.655   6.261   0.973
 7315TIP3   OH245397   4.163   5.942   0.600
 7315TIP3    H145398   4.115   5.870   0.646
 7315TIP3    H245399   4.197   5.895   0.522
 7316TIP3   OH245400   4.599   6.149   1.168
 7316TIP3    H145401   4.514   6.194   1.183
 7316TIP3    H245402   4.657   6.195   1.229
 7317TIP3   OH245403   4.631   6.790   0.406
 7317TIP3    H145404   4.558   6.738   0.368
 7317TIP3    H245405   4.594   6.813   0.494
 7318TIP3   OH245406   5.386   6.722   1.260
 7318TIP3    H145407   5.432   6.778   1.193
 7318TIP3    H245408   5.300   6.710   1.217
 7319TIP3   OH245409   5.010   6.088   0.245
 7319TIP3    H145410   4.932   6.088   0.188
 7319TIP3    H245411   5.047   6.175   0.226
 7320TIP3   OH245412   4.753   6.831   1.474
 7320TIP3    H145413   4.743   6.795   1.564
 7320TIP3    H245414   4.727   6.923   1.487
 7321TIP3   OH245415   5.086   6.300   0.397
 7321TIP3    H145416   5.166   6.259   0.433
 7321TIP3    H245417   5.120   6.382   0.362
 7322TIP3   OH245418   4.162   6.738   0.938
 7322TIP3    H145419   4.216   6.725   0.858
 7322TIP3    H245420   4.181   6.657   0.990
 7323TIP3   OH245421   4.841   6.920   0.305
 7323TIP3    H145422   4.800   7.009   0.310
 7323TIP3    H245423   4.765   6.864   0.332
 7324TIP3   OH245424   3.856   6.560   1.462
 7324TIP3    H145425   3.854   6.515   1.548
 7324TIP3    H245426   3.794   6.507   1.410
 7325TIP3   OH245427   4.500   6.518   1.660
 7325TIP3    H145428   4.508   6.456   1.585
 7325TIP3    H245429   4.576   6.487   1.713
 7326TIP3   OH245430   5.049   7.061   1.492
 7326TIP3    H145431   4.957   7.070   1.462
 7326TIP3    H245432   5.040   7.106   1.578
 7327TIP3   OH245433   5.566   6.281   0.339
 7327TIP3    H145434   5.502   6.274   0.265
 7327TIP3    H245435   5.589   6.376   0.331
 7328TIP3   OH245436   5.603   6.872   1.620
 7328TIP3    H145437   5.508   6.873   1.593
 7328TIP3    H245438   5.647   6.867   1.532
 7329TIP3   OH245439   5.396   7.142   0.352
 7329TIP3    H145440   5.387   7.065   0.409
 7329TIP3    H245441   5.444   7.109   0.273
 7330TIP3   OH245442   5.140   6.638   1.075
 7330TIP3    H145443   5.047   6.619   1.053
 7330TIP3    H245444   5.187   6.580   1.011
 7331TIP3   OH245445   4.397   7.085   0.670
 7331TIP3    H145446   4.428   7.170   0.630
 7331TIP3    H245447   4.304   7.087   0.645
 7332TIP3   OH245448   3.981   6.532   0.147
 7332TIP3    H145449   4.024   6.610   0.185
 7332TIP3    H245450   3.889   6.546   0.172
 7333TIP3   OH245451   4.506   6.842   0.638
 7333TIP3    H145452   4.469   6.932   0.650
 7333TIP3    H245453   4.453   6.787   0.698
 7334TIP3   OH245454   4.569   7.269   1.346
 7334TIP3    H145455   4.641   7.322   1.308
 7334TIP3    H245456   4.622   7.207   1.402
 7335TIP3   OH245457   4.409   7.337   0.582
 7335TIP3    H145458   4.315   7.346   0.609
 7335TIP3    H245459   4.445   7.422   0.618
 7336TIP3   OH245460   4.914   6.842   1.239
 7336TIP3    H145461   4.874   6.823   1.327
 7336TIP3    H245462   4.957   6.758   1.215
 7337TIP3   OH245463   5.145   6.975   0.193
 7337TIP3    H145464   5.183   6.930   0.271
 7337TIP3    H245465   5.056   6.935   0.200
 7338TIP3   OH245466   5.216   7.308   1.481
 7338TIP3    H145467   5.138   7.255   1.453
 7338TIP3    H245468   5.226   7.369   1.404
 7339TIP3   OH245469   5.602   7.408   0.172
 7339TIP3    H145470   5.611   7.375   0.080
 7339TIP3    H245471   5.519   7.461   0.162
 7340TIP3   OH245472   4.047   6.045   1.427
 7340TIP3    H145473   3.966   6.093   1.449
 7340TIP3    H245474   4.034   5.964   1.479
 7341TIP3   OH245475   5.255   6.813   0.394
 7341TIP3    H145476   5.232   6.726   0.433
 7341TIP3    H245477   5.353   6.801   0.384
 7342TIP3   OH245478   3.976   7.202   1.269
 7342TIP3    H145479   4.043   7.134   1.288
 7342TIP3    H245480   3.994   7.271   1.335
 7343TIP3   OH245481   4.459   7.047   0.259
 7343TIP3    H145482   4.515   6.974   0.291
 7343TIP3    H245483   4.498   7.126   0.301
 7344TIP3   OH245484   4.096   6.742   0.284
 7344TIP3    H145485   4.025   6.787   0.335
 7344TIP3    H245486   4.146   6.817   0.248
 7345TIP3   OH245487   4.911   6.009   1.345
 7345TIP3    H145488   4.985   6.021   1.406
 7345TIP3    H245489   4.868   5.929   1.380
 7346TIP3   OH245490   4.940   5.994   0.484
 7346TIP3    H145491   4.972   6.036   0.401
 7346TIP3    H245492   4.995   6.038   0.552
 7347TIP3   OH245493   4.743   7.172   0.320
 7347TIP3    H145494   4.663   7.217   0.352
 7347TIP3    H245495   4.775   7.228   0.247
 7348TIP3   OH245496   4.670   6.167   0.516
 7348TIP3    H145497   4.743   6.230   0.532
 7348TIP3    H245498   4.649   6.133   0.606
 7349TIP3   OH245499   4.780   6.289   1.432
 7349TIP3    H145500   4.770   6.325   1.524
 7349TIP3    H245501   4.801   6.196   1.447
 7350TIP3   OH245502   4.754   5.835   0.581
 7350TIP3    H145503   4.720   5.900   0.647
 7350TIP3    H245504   4.832   5.888   0.548
 7351TIP3   OH245505   4.519   7.313   0.346
 7351TIP3    H145506   4.502   7.387   0.285
 7351TIP3    H245507   4.455   7.328   0.420
 7352TIP3   OH245508   4.310   5.968   0.305
 7352TIP3    H145509   4.323   6.053   0.352
 7352TIP3    H245510   4.389   5.920   0.335
 7353TIP3   OH245511   5.341   6.039   1.520
 7353TIP3    H145512   5.254   6.078   1.494
 7353TIP3    H245513   5.389   6.042   1.437
 7354TIP3   OH245514   5.256   6.442   0.920
 7354TIP3    H145515   5.178   6.384   0.922
 7354TIP3    H245516   5.322   6.388   0.969
 7355TIP3   OH245517   4.164   6.996   0.159
 7355TIP3    H145518   4.228   7.049   0.209
 7355TIP3    H245519   4.222   6.951   0.095
 7356TIP3   OH245520   4.012   6.272   0.076
 7356TIP3    H145521   4.026   6.364   0.108
 7356TIP3    H245522   3.928   6.284   0.030
 7357TIP3   OH245523   5.374   7.399   1.113
 7357TIP3    H145524   5.349   7.444   1.029
 7357TIP3    H245525   5.471   7.404   1.101
 7358TIP3   OH245526   4.074   5.759   0.985
 7358TIP3    H145527   4.064   5.742   0.889
 7358TIP3    H245528   4.045   5.672   1.022
 7359TIP3   OH245529   3.968   7.153   0.589
 7359TIP3    H145530   3.884   7.189   0.620
 7359TIP3    H245531   3.972   7.194   0.500
 7360TIP3   OH245532   3.885   7.406   1.746
 7360TIP3    H145533   3.958   7.403   1.811
 7360TIP3    H245534   3.867   7.312   1.729
 7361TIP3   OH245535   4.421   7.295   1.841
 7361TIP3    H145536   4.479   7.222   1.873
 7361TIP3    H245537   4.349   7.239   1.805
 7362TIP3   OH245538   4.870   7.229   0.075
 7362TIP3    H145539   4.808   7.155   0.060
 7362TIP3    H245540   4.849   7.282  -0.004
 7363TIP3   OH245541   5.003   7.162   1.738
 7363TIP3    H145542   4.965   7.074   1.764
 7363TIP3    H245543   5.083   7.160   1.794
 7364TIP3   OH245544   5.269   7.243   0.042
 7364TIP3    H145545   5.309   7.178   0.104
 7364TIP3    H245546   5.346   7.266  -0.012
 7365TIP3   OH245547   3.875   6.798   1.800
 7365TIP3    H145548   3.825   6.717   1.817
 7365TIP3    H245549   3.825   6.832   1.723
 7366TIP3   OH245550   4.358   6.814   0.056
 7366TIP3    H145551   4.397   6.779   0.138
 7366TIP3    H245552   4.401   6.759  -0.013
 7367TIP3   OH245553   4.550   6.779   1.691
 7367TIP3    H145554   4.513   6.843   1.626
 7367TIP3    H245555   4.515   6.690   1.664
 7368TIP3   OH245556   5.121   6.778   1.504
 7368TIP3    H145557   5.203   6.831   1.504
 7368TIP3    H245558   5.057   6.852   1.509
 7369TIP3   OH245559   4.018   6.495   1.738
 7369TIP3    H145560   4.006   6.415   1.791
 7369TIP3    H245561   4.011   6.563   1.807
 7370TIP3   OH245562   4.444   6.646   0.261
 7370TIP3    H145563   4.386   6.590   0.316
 7370TIP3    H245564   4.487   6.581   0.203
 7371TIP3   OH245565   4.323   6.417   1.414
 7371TIP3    H145566   4.279   6.504   1.425
 7371TIP3    H245567   4.407   6.448   1.376
 7372TIP3   OH245568   4.567   6.456   0.046
 7372TIP3    H145569   4.598   6.456  -0.046
 7372TIP3    H245570   4.653   6.458   0.096
 7373TIP3   OH245571   4.906   6.665   1.814
 7373TIP3    H145572   4.936   6.597   1.753
 7373TIP3    H245573   4.825   6.627   1.854
 7374TIP3   OH245574   5.419   6.794   8.530
 7374TIP3    H145575   5.457   6.713   8.492
 7374TIP3    H245576   5.459   6.860   8.472
 7375TIP3   OH245577   4.439   6.205   1.546
 7375TIP3    H145578   4.432   6.124   1.492
 7375TIP3    H245579   4.412   6.275   1.483
 7376TIP3   OH245580   4.479   5.983   1.346
 7376TIP3    H145581   4.540   6.025   1.281
 7376TIP3    H245582   4.396   5.989   1.294
 7377TIP3   OH245583   4.578   6.560   1.372
 7377TIP3    H145584   4.663   6.603   1.351
 7377TIP3    H245585   4.515   6.623   1.330
 7378TIP3   OH245586   4.986   6.325   1.857
 7378TIP3    H145587   4.987   6.233   1.887
 7378TIP3    H245588   5.073   6.355   1.885
 7379TIP3   OH245589   5.212   6.604   1.703
 7379TIP3    H145590   5.173   6.664   1.636
 7379TIP3    H245591   5.304   6.597   1.670
 7380TIP3   OH245592   4.264   6.264   1.788
 7380TIP3    H145593   4.197   6.212   1.741
 7380TIP3    H245594   4.328   6.283   1.719
 7381TIP3   OH245595   4.542   5.724   1.374
 7381TIP3    H145596   4.516   5.818   1.367
 7381TIP3    H245597   4.467   5.681   1.330
 7382TIP3   OH245598   4.656   6.130   1.710
 7382TIP3    H145599   4.636   6.079   1.790
 7382TIP3    H245600   4.572   6.130   1.660
 7383TIP3   OH245601   4.935   6.073   1.663
 7383TIP3    H145602   4.839   6.078   1.679
 7383TIP3    H245603   4.958   6.008   1.732
 7384TIP3   OH245604   5.061   5.913   1.865
 7384TIP3    H145605   5.021   5.824   1.857
 7384TIP3    H245606   5.015   5.957   1.939
 7385TIP3   OH245607   4.065   6.074   1.762
 7385TIP3    H145608   4.059   5.985   1.722
 7385TIP3    H245609   4.092   6.057   1.854
 7386TIP3   OH245610   4.522   5.649   1.657
 7386TIP3    H145611   4.570   5.565   1.664
 7386TIP3    H245612   4.545   5.677   1.566
 7387TIP3   OH245613   4.562   5.821   1.877
 7387TIP3    H145614   4.546   5.756   1.806
 7387TIP3    H245615   4.494   5.889   1.862
 7388TIP3   OH245616   4.535   7.522   0.183
 7388TIP3    H145617   4.591   7.589   0.225
 7388TIP3    H245618   4.470   7.578   0.137
 7389TIP3   OH245619   3.883   6.975   0.135
 7389TIP3    H145620   3.981   6.980   0.139
 7389TIP3    H245621   3.873   6.933   0.049
 7390TIP3   OH245622   3.780   7.511   0.600
 7390TIP3    H145623   3.713   7.452   0.558
 7390TIP3    H245624   3.810   7.449   0.670
 7391TIP3   OH245625   3.846   7.335   0.806
 7391TIP3    H145626   3.780   7.281   0.853
 7391TIP3    H245627   3.911   7.348   0.879
 7392TIP3   OH245628   5.641   7.466   1.074
 7392TIP3    H145629   5.636   7.466   1.171
 7392TIP3    H245630   5.706   7.538   1.064
 7393TIP3   OH245631   5.573   7.336   1.399
 7393TIP3    H145632   5.536   7.272   1.334
 7393TIP3    H245633   5.606   7.273   1.466
 7394TIP3   OH245634   5.433   6.938   1.900
 7394TIP3    H145635   5.338   6.915   1.904
 7394TIP3    H245636   5.429   7.026   1.941
 7395TIP3   OH245637   5.528   6.777   0.400
 7395TIP3    H145638   5.618   6.813   0.402
 7395TIP3    H245639   5.532   6.714   0.477
 7396TIP3   OH245640   5.560   6.601   0.596
 7396TIP3    H145641   5.491   6.538   0.628
 7396TIP3    H245642   5.611   6.616   0.677
 7397TIP3   OH245643   5.550   6.854   1.094
 7397TIP3    H145644   5.610   6.781   1.068
 7397TIP3    H245645   5.594   6.932   1.055
 7398TIP3   OH245646   5.416   7.122   1.329
 7398TIP3    H145647   5.354   7.181   1.375
 7398TIP3    H245648   5.365   7.106   1.245
 7399TIP3   OH245649   5.563   6.540   0.262
 7399TIP3    H145650   5.515   6.548   0.178
 7399TIP3    H245651   5.531   6.618   0.312
 7400TIP3   OH245652   5.380   6.269   0.126
 7400TIP3    H145653   5.441   6.300   0.056
 7400TIP3    H245654   5.369   6.177   0.094
 7401TIP3   OH245655   5.387   6.420   0.687
 7401TIP3    H145656   5.343   6.337   0.661
 7401TIP3    H245657   5.354   6.435   0.779
 7402TIP3   OH245658   3.842   6.660   1.075
 7402TIP3    H145659   3.847   6.623   0.984
 7402TIP3    H245660   3.933   6.636   1.106
 7403TIP3   OH245661   5.478   6.610   1.642
 7403TIP3    H145662   5.525   6.525   1.661
 7403TIP3    H245663   5.547   6.662   1.598
 7404TIP3   OH245664   5.585   6.372   1.705
 7404TIP3    H145665   5.492   6.339   1.701
 7404TIP3    H245666   5.632   6.287   1.702
 7405TIP3   OH245667   5.389   6.047  -0.021
 7405TIP3    H145668   5.450   5.998   0.039
 7405TIP3    H245669   5.310   5.987  -0.024
 7406TIP3   OH245670   5.308   6.199   0.531
 7406TIP3    H145671   5.336   6.107   0.550
 7406TIP3    H245672   5.378   6.221   0.467
 7407TIP3   OH245673   5.429   6.270   1.048
 7407TIP3    H145674   5.526   6.271   1.064
 7407TIP3    H245675   5.398   6.265   1.140
 7408TIP3   OH245676   5.407   6.321   1.320
 7408TIP3    H145677   5.327   6.342   1.373
 7408TIP3    H245678   5.447   6.411   1.313
 7409TIP3   OH245679   3.836   6.130   1.648
 7409TIP3    H145680   3.925   6.142   1.690
 7409TIP3    H245681   3.793   6.075   1.716
 7410TIP3   OH245682   5.668   5.766   1.872
 7410TIP3    H145683   5.715   5.698   1.821
 7410TIP3    H245684   5.634   5.823   1.799
 7411TIP3   OH245685   5.410   5.929   0.507
 7411TIP3    H145686   5.429   5.882   0.590
 7411TIP3    H245687   5.339   5.874   0.467
 7412TIP3   OH245688   3.940   5.992   1.015
 7412TIP3    H145689   3.979   5.901   1.015
 7412TIP3    H245690   4.018   6.050   1.008
 7413TIP3   OH245691   3.774   6.301   1.076
 7413TIP3    H145692   3.832   6.283   1.000
 7413TIP3    H245693   3.830   6.365   1.123
 7414TIP3   OH245694   5.575   5.914   1.674
 7414TIP3    H145695   5.488   5.945   1.708
 7414TIP3    H245696   5.545   5.877   1.589
 7415TIP3   OH245697   5.563   5.939   0.149
 7415TIP3    H145698   5.604   5.868   0.098
 7415TIP3    H245699   5.639   5.995   0.174
 7416TIP3   OH245700   3.794   5.926   0.481
 7416TIP3    H145701   3.700   5.950   0.496
 7416TIP3    H245702   3.810   5.967   0.394
 7417TIP3   OH245703   5.252   7.380   0.627
 7417TIP3    H145704   5.344   7.379   0.596
 7417TIP3    H245705   5.256   7.438   0.706
 7418TIP3   OH245706   3.797   5.776   1.304
 7418TIP3    H145707   3.739   5.727   1.365
 7418TIP3    H245708   3.741   5.848   1.272
 7419TIP3   OH245709   4.017   7.096   1.678
 7419TIP3    H145710   3.931   7.108   1.637
 7419TIP3    H245711   3.991   7.077   1.770
 7420TIP3   OH245712   4.300   7.221   1.362
 7420TIP3    H145713   4.289   7.318   1.347
 7420TIP3    H245714   4.399   7.220   1.366
 7421TIP3   OH245715   4.768   7.336   1.653
 7421TIP3    H145716   4.770   7.315   1.749
 7421TIP3    H245717   4.857   7.374   1.640
 7422TIP3   OH245718   4.987   7.508   1.567
 7422TIP3    H145719   5.060   7.452   1.538
 7422TIP3    H245720   5.013   7.520   1.662
 7423TIP3   OH245721   5.458   5.730   1.492
 7423TIP3    H145722   5.377   5.769   1.455
 7423TIP3    H245723   5.452   5.637   1.462
 7424TIP3   OH245724   4.016   7.506   1.351
 7424TIP3    H145725   3.927   7.516   1.312
 7424TIP3    H245726   4.005   7.563   1.431
 7425TIP3   OH245727   4.279   7.483   1.301
 7425TIP3    H145728   4.185   7.496   1.332
 7425TIP3    H245729   4.267   7.505   1.207
 7426TIP3   OH245730   4.789   7.487   1.163
 7426TIP3    H145731   4.698   7.484   1.126
 7426TIP3    H245732   4.776   7.512   1.257
 7427TIP3   OH245733   4.984   7.329   1.314
 7427TIP3    H145734   4.919   7.374   1.259
 7427TIP3    H245735   5.055   7.395   1.305
 7428TIP3   OH245736   5.201   7.515   1.280
 7428TIP3    H145737   5.212   7.609   1.261
 7428TIP3    H245738   5.256   7.475   1.207
 7429TIP3   OH245739   4.003   7.333   1.030
 7429TIP3    H145740   3.986   7.285   1.114
 7429TIP3    H245741   4.091   7.299   1.003
 7430TIP3   OH245742   4.234   7.278   0.899
 7430TIP3    H145743   4.219   7.183   0.923
 7430TIP3    H245744   4.320   7.292   0.945
 7431TIP3   OH245745   4.448   7.281   1.049
 7431TIP3    H145746   4.465   7.187   1.025
 7431TIP3    H245747   4.465   7.282   1.144
 7432TIP3   OH245748   4.762   5.826   0.894
 7432TIP3    H145749   4.681   5.784   0.932
 7432TIP3    H245750   4.805   5.752   0.852
 7433TIP3   OH245751   5.347   5.691   0.920
 7433TIP3    H145752   5.416   5.741   0.871
 7433TIP3    H245753   5.265   5.725   0.878
 7434TIP3   OH245754   5.511   5.789   0.728
 7434TIP3    H145755   5.581   5.739   0.682
 7434TIP3    H245756   5.559   5.873   0.751
 7435TIP3   OH245757   4.046   5.720   0.716
 7435TIP3    H145758   3.969   5.702   0.658
 7435TIP3    H245759   4.099   5.639   0.700
 7436TIP3   OH245760   3.916   5.711   0.266
 7436TIP3    H145761   3.972   5.773   0.214
 7436TIP3    H245762   3.874   5.768   0.332
 7437TIP3   OH245763   4.479   5.684   0.690
 7437TIP3    H145764   4.558   5.708   0.640
 7437TIP3    H245765   4.497   5.720   0.777
 7438TIP3   OH245766   5.079   5.729   0.811
 7438TIP3    H145767   5.045   5.750   0.723
 7438TIP3    H245768   5.034   5.645   0.832
 7439TIP3   OH245769   5.206   5.755   0.395
 7439TIP3    H145770   5.143   5.779   0.326
 7439TIP3    H245771   5.171   5.670   0.431
 7440TIP3   OH245772   3.921   7.313   0.386
 7440TIP3    H145773   3.833   7.316   0.344
 7440TIP3    H245774   3.957   7.395   0.349
 7441TIP3   OH245775   4.095   5.851   0.122
 7441TIP3    H145776   4.182   5.810   0.108
 7441TIP3    H245777   4.120   5.940   0.152
 7442TIP3   OH245778   4.641   5.951   0.350
 7442TIP3    H145779   4.673   5.902   0.426
 7442TIP3    H245780   4.644   6.041   0.390
 7443TIP3   OH245781   4.816   7.489   0.168
 7443TIP3    H145782   4.882   7.424   0.136
 7443TIP3    H245783   4.733   7.439   0.155
 7444TIP3   OH245784   5.467   7.370   0.465
 7444TIP3    H145785   5.443   7.278   0.435
 7444TIP3    H245786   5.419   7.419   0.397
 7445TIP3   OH245787   4.017   5.794   1.655
 7445TIP3    H145788   3.968   5.710   1.660
 7445TIP3    H245789   4.096   5.775   1.709
 7446TIP3   OH245790   4.228   5.727   1.831
 7446TIP3    H145791   4.312   5.693   1.794
 7446TIP3    H245792   4.195   5.648   1.880
 7447TIP3   OH245793   4.121   7.406   0.060
 7447TIP3    H145794   4.087   7.456   0.137
 7447TIP3    H245795   4.142   7.321   0.098
 7448TIP3   OH245796   5.051   5.651   1.801
 7448TIP3    H145797   5.045   5.616   1.892
 7448TIP3    H245798   5.147   5.647   1.785
 7449TIP3   OH245799   5.375   7.279   1.701
 7449TIP3    H145800   5.304   7.249   1.640
 7449TIP3    H245801   5.365   7.376   1.688
 7450TIP3   OH245802   6.872   6.672   0.673
 7450TIP3    H145803   6.854   6.769   0.679
 7450TIP3    H245804   6.786   6.643   0.636
 7451TIP3   OH245805   6.733   6.555   1.017
 7451TIP3    H145806   6.745   6.504   1.099
 7451TIP3    H245807   6.667   6.505   0.967
 7452TIP3   OH245808   5.950   6.537   1.188
 7452TIP3    H145809   5.958   6.462   1.250
 7452TIP3    H245810   6.012   6.602   1.225
 7453TIP3   OH245811   7.118   6.881   0.914
 7453TIP3    H145812   7.094   6.813   0.979
 7453TIP3    H245813   7.109   6.964   0.965
 7454TIP3   OH245814   6.047   7.023   1.020
 7454TIP3    H145815   6.008   6.936   0.998
 7454TIP3    H245816   6.140   7.003   0.998
 7455TIP3   OH245817   5.721   6.325   0.579
 7455TIP3    H145818   5.692   6.418   0.589
 7455TIP3    H245819   5.648   6.292   0.524
 7456TIP3   OH245820   5.769   6.568   0.825
 7456TIP3    H145821   5.805   6.477   0.833
 7456TIP3    H245822   5.838   6.617   0.777
 7457TIP3   OH245823   6.793   7.385   0.886
 7457TIP3    H145824   6.863   7.332   0.842
 7457TIP3    H245825   6.780   7.335   0.968
 7458TIP3   OH245826   6.552   6.823   1.117
 7458TIP3    H145827   6.575   6.773   1.038
 7458TIP3    H245828   6.643   6.851   1.144
 7459TIP3   OH245829   7.432   6.002   1.108
 7459TIP3    H145830   7.443   6.051   1.192
 7459TIP3    H245831   7.500   6.042   1.053
 7460TIP3   OH245832   6.907   6.259   1.138
 7460TIP3    H145833   6.963   6.189   1.178
 7460TIP3    H245834   6.918   6.241   1.043
 7461TIP3   OH245835   6.193   6.059   0.801
 7461TIP3    H145836   6.210   6.127   0.734
 7461TIP3    H245837   6.154   5.991   0.743
 7462TIP3   OH245838   6.964   6.108   0.679
 7462TIP3    H145839   7.015   6.066   0.752
 7462TIP3    H245840   7.032   6.160   0.634
 7463TIP3   OH245841   5.889   6.328   0.896
 7463TIP3    H145842   5.909   6.266   0.970
 7463TIP3    H245843   5.867   6.267   0.822
 7464TIP3   OH245844   6.355   6.437   0.818
 7464TIP3    H145845   6.419   6.385   0.872
 7464TIP3    H245846   6.418   6.462   0.748
 7465TIP3   OH245847   7.437   6.088   1.388
 7465TIP3    H145848   7.393   6.171   1.355
 7465TIP3    H245849   7.487   6.123   1.462
 7466TIP3   OH245850   6.128   5.966   1.230
 7466TIP3    H145851   6.075   6.007   1.158
 7466TIP3    H245852   6.067   5.982   1.305
 7467TIP3   OH245853   6.776   6.901   0.581
 7467TIP3    H145854   6.759   6.894   0.485
 7467TIP3    H245855   6.742   6.991   0.600
 7468TIP3   OH245856   6.309   6.732   1.199
 7468TIP3    H145857   6.258   6.805   1.240
 7468TIP3    H245858   6.388   6.783   1.168
 7469TIP3   OH245859   7.120   6.042   0.886
 7469TIP3    H145860   7.072   5.998   0.958
 7469TIP3    H245861   7.212   6.021   0.904
 7470TIP3   OH245862   6.059   6.154   1.024
 7470TIP3    H145863   6.119   6.207   1.083
 7470TIP3    H245864   6.119   6.117   0.956
 7471TIP3   OH245865   6.203   6.953   1.310
 7471TIP3    H145866   6.186   7.040   1.271
 7471TIP3    H245867   6.114   6.936   1.351
 7472TIP3   OH245868   5.783   6.881   0.394
 7472TIP3    H145869   5.776   6.935   0.312
 7472TIP3    H245870   5.777   6.948   0.465
 7473TIP3   OH245871   7.112   7.097   1.091
 7473TIP3    H145872   7.014   7.099   1.090
 7473TIP3    H245873   7.132   7.192   1.076
 7474TIP3   OH245874   7.189   5.913   1.193
 7474TIP3    H145875   7.117   5.908   1.126
 7474TIP3    H245876   7.264   5.953   1.144
 7475TIP3   OH245877   6.444   5.712   0.950
 7475TIP3    H145878   6.428   5.617   0.959
 7475TIP3    H245879   6.359   5.748   0.989
 7476TIP3   OH245880   6.979   7.256   0.751
 7476TIP3    H145881   6.988   7.165   0.716
 7476TIP3    H245882   7.051   7.301   0.701
 7477TIP3   OH245883   7.091   7.023   0.594
 7477TIP3    H145884   7.064   6.955   0.530
 7477TIP3    H245885   7.122   6.968   0.669
 7478TIP3   OH245886   7.216   6.883   1.471
 7478TIP3    H145887   7.234   6.817   1.400
 7478TIP3    H245888   7.234   6.966   1.423
 7479TIP3   OH245889   6.697   6.580   0.423
 7479TIP3    H145890   6.629   6.644   0.392
 7479TIP3    H245891   6.778   6.616   0.383
 7480TIP3   OH245892   6.693   6.490   0.155
 7480TIP3    H145893   6.766   6.514   0.216
 7480TIP3    H245894   6.734   6.421   0.102
 7481TIP3   OH245895   7.422   6.513   1.250
 7481TIP3    H145896   7.363   6.592   1.239
 7481TIP3    H245897   7.494   6.535   1.185
 7482TIP3   OH245898   7.077   6.560   0.524
 7482TIP3    H145899   7.010   6.605   0.581
 7482TIP3    H245900   7.141   6.530   0.593
 7483TIP3   OH245901   7.043   6.429   1.459
 7483TIP3    H145902   7.009   6.506   1.509
 7483TIP3    H245903   6.985   6.433   1.381
 7484TIP3   OH245904   6.207   6.643   0.709
 7484TIP3    H145905   6.180   6.617   0.618
 7484TIP3    H245906   6.275   6.576   0.728
 7485TIP3   OH245907   6.340   7.001   0.974
 7485TIP3    H145908   6.363   7.023   0.882
 7485TIP3    H245909   6.422   6.962   1.010
 7486TIP3   OH245910   6.241   6.524   1.049
 7486TIP3    H145911   6.296   6.533   0.970
 7486TIP3    H245912   6.276   6.597   1.106
 7487TIP3   OH245913   6.844   7.117   1.133
 7487TIP3    H145914   6.829   7.193   1.193
 7487TIP3    H245915   6.824   7.040   1.191
 7488TIP3   OH245916   6.355   6.972   1.533
 7488TIP3    H145917   6.293   7.032   1.580
 7488TIP3    H245918   6.302   6.953   1.452
 7489TIP3   OH245919   6.932   6.559   0.303
 7489TIP3    H145920   6.991   6.546   0.380
 7489TIP3    H245921   6.990   6.602   0.236
 7490TIP3   OH245922   6.052   6.607   1.459
 7490TIP3    H145923   6.061   6.696   1.496
 7490TIP3    H245924   5.969   6.575   1.498
 7491TIP3   OH245925   6.699   7.174   0.662
 7491TIP3    H145926   6.737   7.227   0.733
 7491TIP3    H245927   6.655   7.241   0.607
 7492TIP3   OH245928   6.182   7.145   1.652
 7492TIP3    H145929   6.169   7.172   1.558
 7492TIP3    H245930   6.090   7.123   1.675
 7493TIP3   OH245931   7.300   5.689   0.298
 7493TIP3    H145932   7.207   5.707   0.275
 7493TIP3    H245933   7.342   5.772   0.267
 7494TIP3   OH245934   6.092   6.549   0.469
 7494TIP3    H145935   6.059   6.632   0.428
 7494TIP3    H245936   6.037   6.485   0.422
 7495TIP3   OH245937   7.408   7.131   0.090
 7495TIP3    H145938   7.464   7.197   0.047
 7495TIP3    H245939   7.476   7.062   0.107
 7496TIP3   OH245940   5.735   6.826   1.381
 7496TIP3    H145941   5.675   6.825   1.304
 7496TIP3    H245942   5.776   6.737   1.374
 7497TIP3   OH245943   5.736   7.061   1.019
 7497TIP3    H145944   5.832   7.058   1.017
 7497TIP3    H245945   5.722   7.141   1.071
 7498TIP3   OH245946   7.437   7.140   1.626
 7498TIP3    H145947   7.507   7.073   1.622
 7498TIP3    H245948   7.422   7.152   1.721
 7499TIP3   OH245949   6.625   7.106   1.472
 7499TIP3    H145950   6.627   7.183   1.532
 7499TIP3    H245951   6.538   7.066   1.491
 7500TIP3   OH245952   6.678   7.454   0.482
 7500TIP3    H145953   6.658   7.468   0.387
 7500TIP3    H245954   6.641   7.534   0.522
 7501TIP3   OH245955   6.031   7.341   0.653
 7501TIP3    H145956   6.054   7.350   0.747
 7501TIP3    H245957   5.990   7.252   0.652
 7502TIP3   OH245958   6.944   7.431   0.178
 7502TIP3    H145959   7.011   7.373   0.135
 7502TIP3    H245960   6.941   7.390   0.268
 7503TIP3   OH245961   6.933   7.365   0.437
 7503TIP3    H145962   6.843   7.392   0.467
 7503TIP3    H245963   6.947   7.283   0.488
 7504TIP3   OH245964   7.202   6.296   1.659
 7504TIP3    H145965   7.161   6.333   1.579
 7504TIP3    H245966   7.228   6.204   1.633
 7505TIP3   OH245967   5.975   6.935   1.445
 7505TIP3    H145968   5.967   6.900   1.537
 7505TIP3    H245969   5.882   6.922   1.413
 7506TIP3   OH245970   6.213   5.799   1.049
 7506TIP3    H145971   6.123   5.790   1.013
 7506TIP3    H245972   6.196   5.854   1.128
 7507TIP3   OH245973   6.706   5.741   1.383
 7507TIP3    H145974   6.743   5.714   1.471
 7507TIP3    H245975   6.609   5.741   1.397
 7508TIP3   OH245976   6.976   6.161   1.457
 7508TIP3    H145977   6.912   6.143   1.529
 7508TIP3    H245978   7.006   6.252   1.478
 7509TIP3   OH245979   7.075   6.652   0.099
 7509TIP3    H145980   7.082   6.673   0.005
 7509TIP3    H245981   7.147   6.709   0.132
 7510TIP3   OH245982   6.650   6.059   0.129
 7510TIP3    H145983   6.607   6.047   0.216
 7510TIP3    H245984   6.656   5.967   0.099
 7511TIP3   OH245985   6.229   6.288   1.173
 7511TIP3    H145986   6.178   6.305   1.255
 7511TIP3    H245987   6.242   6.382   1.147
 7512TIP3   OH245988   6.196   6.265   0.633
 7512TIP3    H145989   6.106   6.239   0.606
 7512TIP3    H245990   6.243   6.252   0.547
 7513TIP3   OH245991   6.782   6.374   0.559
 7513TIP3    H145992   6.745   6.450   0.508
 7513TIP3    H245993   6.848   6.341   0.496
 7514TIP3   OH245994   6.672   6.391   1.672
 7514TIP3    H145995   6.626   6.305   1.690
 7514TIP3    H245996   6.722   6.403   1.754
 7515TIP3   OH245997   6.873   6.330   0.854
 7515TIP3    H145998   6.858   6.408   0.799
 7515TIP3    H245999   6.871   6.261   0.785
 7516TIP3   OH246000   5.983   6.294   1.312
 7516TIP3    H146001   6.024   6.331   1.391
 7516TIP3    H246002   5.958   6.205   1.344
 7517TIP3   OH246003   6.313   6.074   0.078
 7517TIP3    H146004   6.282   6.016   0.152
 7517TIP3    H246005   6.282   6.162   0.109
 7518TIP3   OH246006   5.658   6.024   0.767
 7518TIP3    H146007   5.727   6.015   0.834
 7518TIP3    H246008   5.705   6.043   0.684
 7519TIP3   OH246009   5.754   6.087   0.275
 7519TIP3    H146010   5.835   6.122   0.233
 7519TIP3    H246011   5.703   6.170   0.287
 7520TIP3   OH246012   6.796   6.467   1.271
 7520TIP3    H146013   6.850   6.399   1.223
 7520TIP3    H246014   6.736   6.407   1.322
 7521TIP3   OH246015   6.504   6.060   0.768
 7521TIP3    H146016   6.415   6.031   0.788
 7521TIP3    H246017   6.562   5.998   0.819
 7522TIP3   OH246018   5.932   6.176   0.669
 7522TIP3    H146019   5.862   6.219   0.615
 7522TIP3    H246020   5.938   6.085   0.633
 7523TIP3   OH246021   6.315   6.216   0.392
 7523TIP3    H146022   6.411   6.231   0.397
 7523TIP3    H246023   6.289   6.263   0.309
 7524TIP3   OH246024   6.943   5.953   1.083
 7524TIP3    H146025   6.873   5.964   1.150
 7524TIP3    H246026   6.894   5.921   1.006
 7525TIP3   OH246027   6.232   6.317   0.162
 7525TIP3    H146028   6.163   6.304   0.094
 7525TIP3    H246029   6.300   6.369   0.114
 7526TIP3   OH246030   5.985   6.790   1.684
 7526TIP3    H146031   6.068   6.795   1.738
 7526TIP3    H246032   5.917   6.769   1.751
 7527TIP3   OH246033   6.579   6.324   0.919
 7527TIP3    H146034   6.674   6.301   0.906
 7527TIP3    H246035   6.547   6.252   0.975
 7528TIP3   OH246036   6.056   5.932   0.600
 7528TIP3    H146037   6.006   5.857   0.641
 7528TIP3    H246038   6.091   5.891   0.519
 7529TIP3   OH246039   6.458   6.166   1.164
 7529TIP3    H146040   6.376   6.219   1.176
 7529TIP3    H246041   6.519   6.207   1.229
 7530TIP3   OH246042   6.528   6.786   0.395
 7530TIP3    H146043   6.452   6.740   0.353
 7530TIP3    H246044   6.482   6.819   0.476
 7531TIP3   OH246045   7.262   6.725   1.243
 7531TIP3    H146046   7.319   6.784   1.190
 7531TIP3    H246047   7.188   6.708   1.180
 7532TIP3   OH246048   6.915   6.076   0.180
 7532TIP3    H146049   6.829   6.102   0.142
 7532TIP3    H246050   6.939   6.155   0.230
 7533TIP3   OH246051   6.621   6.812   1.470
 7533TIP3    H146052   6.642   6.764   1.550
 7533TIP3    H246053   6.646   6.903   1.495
 7534TIP3   OH246054   6.990   6.290   0.361
 7534TIP3    H146055   7.066   6.282   0.422
 7534TIP3    H246056   7.017   6.363   0.304
 7535TIP3   OH246057   6.043   6.745   0.920
 7535TIP3    H146058   6.104   6.742   0.844
 7535TIP3    H246059   6.072   6.671   0.976
 7536TIP3   OH246060   6.750   6.919   0.306
 7536TIP3    H146061   6.704   7.004   0.324
 7536TIP3    H246062   6.676   6.855   0.316
 7537TIP3   OH246063   5.773   6.551   1.460
 7537TIP3    H146064   5.731   6.509   1.537
 7537TIP3    H246065   5.708   6.528   1.390
 7538TIP3   OH246066   6.436   6.518   1.651
 7538TIP3    H146067   6.418   6.486   1.561
 7538TIP3    H246068   6.530   6.490   1.663
 7539TIP3   OH246069   6.902   7.026   1.492
 7539TIP3    H146070   6.819   7.072   1.471
 7539TIP3    H246071   6.921   7.068   1.577
 7540TIP3   OH246072   7.437   6.289   0.338
 7540TIP3    H146073   7.388   6.267   0.256
 7540TIP3    H246074   7.455   6.384   0.319
 7541TIP3   OH246075   7.463   6.844   1.597
 7541TIP3    H146076   7.381   6.895   1.579
 7541TIP3    H246077   7.505   6.848   1.507
 7542TIP3   OH246078   7.363   7.106   0.358
 7542TIP3    H146079   7.282   7.065   0.391
 7542TIP3    H246080   7.358   7.095   0.260
 7543TIP3   OH246081   7.031   6.651   1.062
 7543TIP3    H146082   6.935   6.640   1.047
 7543TIP3    H246083   7.065   6.582   1.000
 7544TIP3   OH246084   6.246   7.083   0.717
 7544TIP3    H146085   6.286   7.168   0.693
 7544TIP3    H246086   6.168   7.081   0.659
 7545TIP3   OH246087   5.860   6.524   0.229
 7545TIP3    H146088   5.907   6.595   0.182
 7545TIP3    H246089   5.767   6.548   0.216
 7546TIP3   OH246090   6.384   6.851   0.629
 7546TIP3    H146091   6.338   6.930   0.661
 7546TIP3    H246092   6.343   6.783   0.685
 7547TIP3   OH246093   6.465   7.273   1.328
 7547TIP3    H146094   6.522   7.347   1.300
 7547TIP3    H246095   6.533   7.209   1.357
 7548TIP3   OH246096   6.289   7.347   0.576
 7548TIP3    H146097   6.193   7.348   0.598
 7548TIP3    H246098   6.323   7.417   0.635
 7549TIP3   OH246099   6.789   6.848   1.240
 7549TIP3    H146100   6.741   6.817   1.321
 7549TIP3    H246101   6.851   6.775   1.226
 7550TIP3   OH246102   7.055   7.011   0.212
 7550TIP3    H146103   7.077   6.946   0.283
 7550TIP3    H246104   6.962   6.984   0.199
 7551TIP3   OH246105   7.035   7.349   1.498
 7551TIP3    H146106   7.014   7.263   1.458
 7551TIP3    H246107   7.087   7.397   1.429
 7552TIP3   OH246108   7.498   7.417   0.194
 7552TIP3    H146109   7.521   7.413   0.101
 7552TIP3    H246110   7.404   7.448   0.188
 7553TIP3   OH246111   5.934   6.057   1.431
 7553TIP3    H146112   5.844   6.093   1.424
 7553TIP3    H246113   5.916   5.969   1.469
 7554TIP3   OH246114   7.127   6.799   0.390
 7554TIP3    H146115   7.101   6.710   0.423
 7554TIP3    H246116   7.225   6.792   0.394
 7555TIP3   OH246117   5.872   7.203   1.268
 7555TIP3    H146118   5.933   7.128   1.275
 7555TIP3    H246119   5.895   7.254   1.346
 7556TIP3   OH246120   6.347   7.035   0.252
 7556TIP3    H146121   6.423   6.994   0.297
 7556TIP3    H246122   6.353   7.127   0.284
 7557TIP3   OH246123   6.005   6.754   0.303
 7557TIP3    H146124   5.919   6.790   0.334
 7557TIP3    H246125   6.045   6.829   0.257
 7558TIP3   OH246126   6.759   6.022   1.356
 7558TIP3    H146127   6.851   6.040   1.383
 7558TIP3    H246128   6.746   5.930   1.387
 7559TIP3   OH246129   6.837   5.997   0.470
 7559TIP3    H146130   6.871   6.040   0.392
 7559TIP3    H246131   6.880   6.047   0.543
 7560TIP3   OH246132   6.628   7.165   0.350
 7560TIP3    H146133   6.544   7.214   0.340
 7560TIP3    H246134   6.684   7.200   0.279
 7561TIP3   OH246135   6.572   6.179   0.526
 7561TIP3    H146136   6.638   6.247   0.545
 7561TIP3    H246137   6.557   6.135   0.613
 7562TIP3   OH246138   6.647   6.280   1.407
 7562TIP3    H146139   6.659   6.308   1.500
 7562TIP3    H246140   6.681   6.188   1.404
 7563TIP3   OH246141   6.648   5.838   0.576
 7563TIP3    H146142   6.627   5.878   0.662
 7563TIP3    H246143   6.721   5.896   0.544
 7564TIP3   OH246144   6.388   7.299   0.332
 7564TIP3    H146145   6.394   7.383   0.281
 7564TIP3    H246146   6.343   7.327   0.415
 7565TIP3   OH246147   6.201   5.972   0.298
 7565TIP3    H146148   6.212   6.058   0.341
 7565TIP3    H246149   6.281   5.927   0.330
 7566TIP3   OH246150   7.210   6.039   1.559
 7566TIP3    H146151   7.121   6.053   1.520
 7566TIP3    H246152   7.267   6.043   1.480
 7567TIP3   OH246153   7.110   6.439   0.914
 7567TIP3    H146154   7.027   6.387   0.919
 7567TIP3    H246155   7.165   6.385   0.976
 7568TIP3   OH246156   6.051   7.005   0.155
 7568TIP3    H146157   6.118   7.056   0.204
 7568TIP3    H246158   6.111   6.949   0.100
 7569TIP3   OH246159   5.924   6.257   0.117
 7569TIP3    H146160   5.930   6.350   0.148
 7569TIP3    H246161   5.846   6.259   0.061
 7570TIP3   OH246162   7.210   7.349   1.094
 7570TIP3    H146163   7.195   7.414   1.020
 7570TIP3    H246164   7.309   7.349   1.097
 7571TIP3   OH246165   5.956   5.751   0.989
 7571TIP3    H146166   5.951   5.738   0.891
 7571TIP3    H246167   5.938   5.660   1.020
 7572TIP3   OH246168   5.859   7.132   0.587
 7572TIP3    H146169   5.780   7.170   0.629
 7572TIP3    H246170   5.860   7.184   0.503
 7573TIP3   OH246171   5.744   7.399   1.699
 7573TIP3    H146172   5.829   7.393   1.751
 7573TIP3    H246173   5.757   7.321   1.640
 7574TIP3   OH246174   6.253   7.283   1.888
 7574TIP3    H146175   6.328   7.228   1.920
 7574TIP3    H246176   6.250   7.255   1.794
 7575TIP3   OH246177   6.755   7.243   0.090
 7575TIP3    H146178   6.697   7.210   0.019
 7575TIP3    H246179   6.823   7.290   0.039
 7576TIP3   OH246180   6.887   7.143   1.750
 7576TIP3    H146181   6.846   7.063   1.791
 7576TIP3    H246182   6.981   7.124   1.766
 7577TIP3   OH246183   7.135   7.246   0.051
 7577TIP3    H146184   7.117   7.169   0.109
 7577TIP3    H246185   7.231   7.236   0.037
 7578TIP3   OH246186   5.743   6.785   1.834
 7578TIP3    H146187   5.716   6.691   1.825
 7578TIP3    H246188   5.696   6.826   1.758
 7579TIP3   OH246189   6.226   6.821   0.051
 7579TIP3    H146190   6.284   6.806   0.128
 7579TIP3    H246191   6.272   6.767  -0.017
 7580TIP3   OH246192   6.420   6.777   1.708
 7580TIP3    H146193   6.413   6.839   1.632
 7580TIP3    H246194   6.423   6.687   1.666
 7581TIP3   OH246195   6.980   6.765   1.520
 7581TIP3    H146196   7.071   6.802   1.510
 7581TIP3    H246197   6.930   6.849   1.511
 7582TIP3   OH246198   5.836   6.494   1.821
 7582TIP3    H146199   5.846   6.451   1.735
 7582TIP3    H246200   5.906   6.451   1.873
 7583TIP3   OH246201   6.340   6.647   0.256
 7583TIP3    H146202   6.261   6.603   0.293
 7583TIP3    H246203   6.372   6.579   0.193
 7584TIP3   OH246204   6.216   6.412   1.401
 7584TIP3    H146205   6.167   6.491   1.433
 7584TIP3    H246206   6.303   6.454   1.385
 7585TIP3   OH246207   6.440   6.469   0.059
 7585TIP3    H146208   6.471   6.480  -0.032
 7585TIP3    H246209   6.527   6.470   0.108
 7586TIP3   OH246210   6.777   6.669   1.846
 7586TIP3    H146211   6.866   6.629   1.838
 7586TIP3    H246212   6.726   6.596   1.886
 7587TIP3   OH246213   7.338   6.742   8.489
 7587TIP3    H146214   7.351   6.676   8.418
 7587TIP3    H246215   7.412   6.804   8.480
 7588TIP3   OH246216   6.306   6.187   1.548
 7588TIP3    H146217   6.317   6.108   1.491
 7588TIP3    H246218   6.309   6.261   1.484
 7589TIP3   OH246219   6.375   5.982   1.349
 7589TIP3    H146220   6.424   6.036   1.283
 7589TIP3    H246221   6.288   5.976   1.304
 7590TIP3   OH246222   6.446   6.569   1.365
 7590TIP3    H146223   6.535   6.606   1.350
 7590TIP3    H246224   6.392   6.634   1.315
 7591TIP3   OH246225   6.962   6.268   1.856
 7591TIP3    H146226   6.977   6.195   1.794
 7591TIP3    H246227   7.051   6.309   1.849
 7592TIP3   OH246228   7.054   6.596   1.716
 7592TIP3    H146229   7.026   6.657   1.644
 7592TIP3    H246230   7.148   6.580   1.694
 7593TIP3   OH246231   6.169   6.227   1.774
 7593TIP3    H146232   6.079   6.196   1.754
 7593TIP3    H246233   6.219   6.203   1.694
 7594TIP3   OH246234   6.435   5.721   1.363
 7594TIP3    H146235   6.412   5.816   1.366
 7594TIP3    H246236   6.352   5.682   1.333
 7595TIP3   OH246237   6.536   6.160   1.742
 7595TIP3    H146238   6.502   6.142   1.831
 7595TIP3    H246239   6.462   6.130   1.686
 7596TIP3   OH246240   6.812   6.068   1.680
 7596TIP3    H146241   6.720   6.072   1.714
 7596TIP3    H246242   6.855   6.020   1.753
 7597TIP3   OH246243   6.963   5.932   1.889
 7597TIP3    H146244   6.973   5.844   1.846
 7597TIP3    H246245   6.911   5.909   1.967
 7598TIP3   OH246246   5.950   6.059   1.755
 7598TIP3    H146247   6.029   6.012   1.724
 7598TIP3    H246248   5.882   5.992   1.731
 7599TIP3   OH246249   6.400   5.661   1.675
 7599TIP3    H146250   6.445   5.577   1.692
 7599TIP3    H246251   6.421   5.673   1.581
 7600TIP3   OH246252   6.453   5.827   1.882
 7600TIP3    H146253   6.427   5.762   1.813
 7600TIP3    H246254   6.371   5.877   1.898
 7601TIP3   OH246255   6.427   7.520   0.155
 7601TIP3    H146256   6.521   7.540   0.179
 7601TIP3    H246257   6.404   7.594   0.098
 7602TIP3   OH246258   5.774   6.973   0.137
 7602TIP3    H146259   5.872   6.984   0.135
 7602TIP3    H246260   5.756   6.938   0.048
 7603TIP3   OH246261   5.657   7.510   0.598
 7603TIP3    H146262   5.587   7.449   0.561
 7603TIP3    H246263   5.689   7.450   0.670
 7604TIP3   OH246264   5.710   7.340   0.809
 7604TIP3    H146265   5.635   7.298   0.853
 7604TIP3    H246266   5.775   7.340   0.883
 7605TIP3   OH246267   7.472   7.404   1.084
 7605TIP3    H146268   7.492   7.459   1.163
 7605TIP3    H246269   7.462   7.473   1.016
 7606TIP3   OH246270   7.292   6.946   1.903
 7606TIP3    H146271   7.219   6.931   1.965
 7606TIP3    H246272   7.349   7.003   1.956
 7607TIP3   OH246273   7.401   6.752   0.405
 7607TIP3    H146274   7.479   6.806   0.429
 7607TIP3    H246275   7.399   6.685   0.478
 7608TIP3   OH246276   7.461   6.565   0.597
 7608TIP3    H146277   7.379   6.530   0.640
 7608TIP3    H246278   7.515   6.588   0.675
 7609TIP3   OH246279   7.466   6.820   1.103
 7609TIP3    H146280   7.553   6.812   1.061
 7609TIP3    H246281   7.457   6.918   1.095
 7610TIP3   OH246282   7.310   7.103   1.316
 7610TIP3    H146283   7.272   7.168   1.375
 7610TIP3    H246284   7.256   7.112   1.235
 7611TIP3   OH246285   7.455   6.548   0.225
 7611TIP3    H146286   7.378   6.552   0.166
 7611TIP3    H246287   7.449   6.634   0.272
 7612TIP3   OH246288   7.246   6.260   0.126
 7612TIP3    H146289   7.311   6.298   0.065
 7612TIP3    H246290   7.237   6.171   0.088
 7613TIP3   OH246291   7.252   6.439   0.693
 7613TIP3    H146292   7.222   6.352   0.661
 7613TIP3    H246293   7.207   6.444   0.781
 7614TIP3   OH246294   5.738   6.648   1.084
 7614TIP3    H146295   5.747   6.628   0.989
 7614TIP3    H246296   5.826   6.619   1.117
 7615TIP3   OH246297   7.325   6.615   1.653
 7615TIP3    H146298   7.398   6.554   1.680
 7615TIP3    H246299   7.376   6.690   1.616
 7616TIP3   OH246300   7.482   6.414   1.702
 7616TIP3    H146301   7.391   6.381   1.686
 7616TIP3    H246302   7.527   6.328   1.717
 7617TIP3   OH246303   7.220   6.029  -0.009
 7617TIP3    H146304   7.260   5.973   0.060
 7617TIP3    H246305   7.126   6.027   0.015
 7618TIP3   OH246306   7.200   6.199   0.516
 7618TIP3    H146307   7.214   6.102   0.529
 7618TIP3    H246308   7.239   6.208   0.428
 7619TIP3   OH246309   7.230   6.270   1.068
 7619TIP3    H146310   7.325   6.251   1.048
 7619TIP3    H246311   7.233   6.265   1.164
 7620TIP3   OH246312   7.282   6.305   1.350
 7620TIP3    H146313   7.203   6.341   1.393
 7620TIP3    H246314   7.325   6.388   1.318
 7621TIP3   OH246315   5.718   6.146   1.659
 7621TIP3    H146316   5.805   6.134   1.703
 7621TIP3    H246317   5.668   6.068   1.688
 7622TIP3   OH246318   7.513   5.752   1.896
 7622TIP3    H146319   7.554   5.679   1.845
 7622TIP3    H246320   7.477   5.805   1.822
 7623TIP3   OH246321   7.234   5.937   0.496
 7623TIP3    H146322   7.272   5.891   0.574
 7623TIP3    H246323   7.184   5.865   0.453
 7624TIP3   OH246324   5.833   6.000   1.006
 7624TIP3    H146325   5.864   5.906   1.005
 7624TIP3    H246326   5.916   6.051   1.009
 7625TIP3   OH246327   5.690   6.303   1.090
 7625TIP3    H146328   5.724   6.275   1.005
 7625TIP3    H246329   5.747   6.377   1.114
 7626TIP3   OH246330   7.413   5.906   1.700
 7626TIP3    H146331   7.337   5.959   1.667
 7626TIP3    H246332   7.419   5.840   1.627
 7627TIP3   OH246333   7.404   5.912   0.161
 7627TIP3    H146334   7.448   5.879   0.082
 7627TIP3    H246335   7.466   5.984   0.187
 7628TIP3   OH246336   5.694   5.932   0.485
 7628TIP3    H146337   5.598   5.930   0.497
 7628TIP3    H246338   5.702   5.990   0.406
 7629TIP3   OH246339   7.155   7.416   0.641
 7629TIP3    H146340   7.224   7.400   0.571
 7629TIP3    H246341   7.208   7.439   0.719
 7630TIP3   OH246342   5.671   5.783   1.306
 7630TIP3    H146343   5.606   5.746   1.369
 7630TIP3    H246344   5.620   5.849   1.259
 7631TIP3   OH246345   5.908   7.083   1.701
 7631TIP3    H146346   5.858   7.018   1.650
 7631TIP3    H246347   5.861   7.088   1.785
 7632TIP3   OH246348   6.196   7.229   1.380
 7632TIP3    H146349   6.186   7.327   1.366
 7632TIP3    H246350   6.294   7.225   1.373
 7633TIP3   OH246351   6.640   7.320   1.659
 7633TIP3    H146352   6.649   7.255   1.731
 7633TIP3    H246353   6.728   7.362   1.652
 7634TIP3   OH246354   6.848   7.491   1.623
 7634TIP3    H146355   6.918   7.444   1.572
 7634TIP3    H246356   6.889   7.489   1.712
 7635TIP3   OH246357   7.374   5.727   1.501
 7635TIP3    H146358   7.287   5.744   1.460
 7635TIP3    H246359   7.391   5.633   1.474
 7636TIP3   OH246360   5.922   7.533   1.336
 7636TIP3    H146361   5.831   7.550   1.303
 7636TIP3    H246362   5.910   7.579   1.423
 7637TIP3   OH246363   6.185   7.486   1.321
 7637TIP3    H146364   6.088   7.498   1.334
 7637TIP3    H246365   6.192   7.512   1.227
 7638TIP3   OH246366   6.650   7.472   1.180
 7638TIP3    H146367   6.588   7.503   1.110
 7638TIP3    H246368   6.661   7.555   1.229
 7639TIP3   OH246369   6.840   7.321   1.297
 7639TIP3    H146370   6.771   7.383   1.265
 7639TIP3    H246371   6.919   7.375   1.285
 7640TIP3   OH246372   7.126   7.511   1.296
 7640TIP3    H146373   7.164   7.588   1.251
 7640TIP3    H246374   7.165   7.442   1.238
 7641TIP3   OH246375   5.890   7.336   1.017
 7641TIP3    H146376   5.876   7.293   1.104
 7641TIP3    H246377   5.983   7.310   0.998
 7642TIP3   OH246378   6.137   7.300   0.909
 7642TIP3    H146379   6.115   7.205   0.920
 7642TIP3    H246380   6.218   7.300   0.967
 7643TIP3   OH246381   6.332   7.253   1.090
 7643TIP3    H146382   6.360   7.162   1.071
 7643TIP3    H246383   6.360   7.261   1.185
 7644TIP3   OH246384   6.679   5.861   0.850
 7644TIP3    H146385   6.617   5.831   0.918
 7644TIP3    H246386   6.752   5.798   0.860
 7645TIP3   OH246387   7.214   5.688   0.923
 7645TIP3    H146388   7.258   5.747   0.858
 7645TIP3    H246389   7.121   5.708   0.902
 7646TIP3   OH246390   7.341   5.814   0.715
 7646TIP3    H146391   7.400   5.739   0.691
 7646TIP3    H246392   7.409   5.881   0.740
 7647TIP3   OH246393   5.931   5.714   0.714
 7647TIP3    H146394   5.849   5.694   0.665
 7647TIP3    H246395   5.982   5.632   0.694
 7648TIP3   OH246396   5.793   5.716   0.275
 7648TIP3    H146397   5.851   5.769   0.216
 7648TIP3    H246398   5.767   5.780   0.344
 7649TIP3   OH246399   6.363   5.692   0.682
 7649TIP3    H146400   6.450   5.697   0.640
 7649TIP3    H246401   6.384   5.715   0.774
 7650TIP3   OH246402   6.948   5.760   0.839
 7650TIP3    H146403   6.978   5.751   0.748
 7650TIP3    H246404   6.901   5.675   0.855
 7651TIP3   OH246405   7.045   5.741   0.381
 7651TIP3    H146406   6.975   5.791   0.424
 7651TIP3    H246407   7.025   5.649   0.412
 7652TIP3   OH246408   5.799   7.311   0.389
 7652TIP3    H146409   5.705   7.310   0.367
 7652TIP3    H246410   5.824   7.395   0.345
 7653TIP3   OH246411   5.970   5.850   0.131
 7653TIP3    H146412   6.057   5.810   0.120
 7653TIP3    H246413   5.995   5.936   0.168
 7654TIP3   OH246414   6.493   5.969   0.374
 7654TIP3    H146415   6.532   5.908   0.438
 7654TIP3    H246416   6.514   6.054   0.420
 7655TIP3   OH246417   6.682   7.481   0.210
 7655TIP3    H146418   6.775   7.468   0.181
 7655TIP3    H246419   6.648   7.397   0.173
 7656TIP3   OH246420   7.330   7.356   0.449
 7656TIP3    H146421   7.344   7.269   0.405
 7656TIP3    H246422   7.304   7.414   0.375
 7657TIP3   OH246423   5.907   5.795   1.638
 7657TIP3    H146424   5.849   5.717   1.648
 7657TIP3    H246425   5.987   5.769   1.690
 7658TIP3   OH246426   6.122   5.719   1.823
 7658TIP3    H146427   6.211   5.701   1.788
 7658TIP3    H246428   6.102   5.637   1.872
 7659TIP3   OH246429   5.988   7.457   0.063
 7659TIP3    H146430   5.964   7.457   0.158
 7659TIP3    H246431   6.050   7.382   0.063
 7660TIP3   OH246432   6.987   5.670   1.817
 7660TIP3    H146433   7.005   5.646   1.910
 7660TIP3    H246434   7.071   5.642   1.775
 7661TIP3   OH246435   7.585   6.315   0.568
 7661TIP3    H146436   7.544   6.403   0.584
 7661TIP3    H246437   7.536   6.290   0.488
 7662TIP3   OH246438   7.654   6.583   0.794
 7662TIP3    H146439   7.673   6.490   0.808
 7662TIP3    H246440   7.743   6.621   0.795
 7663TIP3   OH246441   7.641   6.908   0.411
 7663TIP3    H146442   7.645   6.924   0.315
 7663TIP3    H246443   7.622   6.997   0.444
 7664TIP3   OH246444   7.554   6.784   1.351
 7664TIP3    H146445   7.510   6.788   1.263
 7664TIP3    H246446   7.565   6.689   1.365
 7665TIP3   OH246447   7.523   7.074   1.045
 7665TIP3    H146448   7.606   7.084   0.996
 7665TIP3    H246449   7.533   7.140   1.115
 7666TIP3   OH246450   7.526   6.006   0.741
 7666TIP3    H146451   7.606   6.051   0.770
 7666TIP3    H246452   7.504   6.058   0.662
 7667TIP3   OH246453   7.585   6.087   0.239
 7667TIP3    H146454   7.670   6.115   0.204
 7667TIP3    H246455   7.560   6.163   0.296
 7668TIP3   OH246456   7.584   6.531   1.475
 7668TIP3    H146457   7.557   6.482   1.556
 7668TIP3    H246458   7.520   6.496   1.409
 7669TIP3   OH246459   7.637   6.724   1.769
 7669TIP3    H146460   7.569   6.667   1.811
 7669TIP3    H246461   7.586   6.771   1.699
 7670TIP3   OH246462   7.623   6.966   0.101
 7670TIP3    H146463   7.720   6.951   0.113
 7670TIP3    H246464   7.627   6.969   0.003
 7671TIP3   OH246465   7.502   7.472   0.610
 7671TIP3    H146466   7.438   7.433   0.547
 7671TIP3    H246467   7.515   7.393   0.668
 7672TIP3   OH246468   7.541   7.295   0.807
 7672TIP3    H146469   7.473   7.244   0.853
 7672TIP3    H246470   7.603   7.313   0.879
 7673TIP3   OH246471   7.618   6.580   1.090
 7673TIP3    H146472   7.591   6.603   0.999
 7673TIP3    H246473   7.702   6.630   1.096
 7674TIP3   OH246474   7.518   6.154   1.701
 7674TIP3    H146475   7.615   6.148   1.711
 7674TIP3    H246476   7.490   6.062   1.717
 7675TIP3   OH246477   7.496   6.273   1.070
 7675TIP3    H146478   7.593   6.268   1.085
 7675TIP3    H246479   7.494   6.369   1.062
 7676TIP3   OH246480   7.494   5.948   0.449
 7676TIP3    H146481   7.397   5.942   0.454
 7676TIP3    H246482   7.506   5.979   0.357
 7677TIP3   OH246483   7.504   5.782   1.268
 7677TIP3    H146484   7.464   5.785   1.357
 7677TIP3    H246485   7.456   5.854   1.222
 7678TIP3   OH246486   7.649   7.281   0.398
 7678TIP3    H146487   7.568   7.258   0.348
 7678TIP3    H246488   7.648   7.377   0.389
 7679TIP3   OH246489   0.804   7.551   1.024
 7679TIP3    H146490   0.776   7.509   0.940
 7679TIP3    H246491   0.717   7.558   1.068
 7680TIP3   OH246492   1.659   7.538   0.287
 7680TIP3    H146493   1.569   7.549   0.323
 7680TIP3    H246494   1.690   7.632   0.287
 7681TIP3   OH246495   0.566   7.648   1.079
 7681TIP3    H146496   0.473   7.649   1.051
 7681TIP3    H246497   0.591   7.743   1.074
 7682TIP3   OH246498   1.060   7.608   1.393
 7682TIP3    H146499   1.131   7.583   1.458
 7682TIP3    H246500   0.985   7.562   1.434
 7683TIP3   OH246501   0.317   7.607   0.976
 7683TIP3    H146502   0.307   7.603   0.880
 7683TIP3    H246503   0.277   7.519   1.001
 7684TIP3   OH246504   0.769   7.526   1.369
 7684TIP3    H146505   0.757   7.622   1.360
 7684TIP3    H246506   0.679   7.491   1.350
 7685TIP3   OH246507   0.752   7.532   1.638
 7685TIP3    H146508   0.799   7.461   1.684
 7685TIP3    H246509   0.763   7.506   1.544
 7686TIP3   OH246510   1.807   7.533   1.867
 7686TIP3    H146511   1.904   7.535   1.857
 7686TIP3    H246512   1.792   7.617   1.912
 7687TIP3   OH246513   0.015   7.588   1.348
 7687TIP3    H146514   0.023   7.587   1.444
 7687TIP3    H246515   0.051   7.675   1.326
 7688TIP3   OH246516   1.669   7.575   1.458
 7688TIP3    H146517   1.599   7.574   1.390
 7688TIP3    H246518   1.704   7.482   1.446
 7689TIP3   OH246519   1.538   7.540   0.893
 7689TIP3    H146520   1.612   7.569   0.834
 7689TIP3    H246521   1.495   7.626   0.909
 7690TIP3   OH246522   1.727   7.627   0.742
 7690TIP3    H146523   1.784   7.588   0.673
 7690TIP3    H246524   1.776   7.706   0.771
 7691TIP3   OH246525   0.318   7.587   0.676
 7691TIP3    H146526   0.229   7.573   0.640
 7691TIP3    H246527   0.354   7.496   0.663
 7692TIP3   OH246528   0.204   7.574   0.225
 7692TIP3    H146529   0.198   7.625   0.143
 7692TIP3    H246530   0.187   7.640   0.295
 7693TIP3   OH246531   0.738   7.536   0.745
 7693TIP3    H146532   0.805   7.573   0.686
 7693TIP3    H246533   0.676   7.611   0.753
 7694TIP3   OH246534   1.295   7.566   0.758
 7694TIP3    H146535   1.251   7.518   0.686
 7694TIP3    H246536   1.268   7.508   0.833
 7695TIP3   OH246537   1.411   7.597   0.380
 7695TIP3    H146538   1.368   7.573   0.296
 7695TIP3    H246539   1.378   7.521   0.434
 7696TIP3   OH246540   0.204   7.636   1.633
 7696TIP3    H146541   0.180   7.563   1.695
 7696TIP3    H246542   0.300   7.620   1.632
 7697TIP3   OH246543   0.452   7.538   1.839
 7697TIP3    H146544   0.526   7.474   1.835
 7697TIP3    H246545   0.396   7.489   1.904
 7698TIP3   OH246546   1.329   7.512   1.819
 7698TIP3    H146547   1.323   7.479   1.912
 7698TIP3    H246548   1.425   7.518   1.800
 7699TIP3   OH246549   2.684   7.542   1.033
 7699TIP3    H146550   2.682   7.464   0.975
 7699TIP3    H246551   2.587   7.561   1.042
 7700TIP3   OH246552   3.537   7.533   0.296
 7700TIP3    H146553   3.444   7.541   0.324
 7700TIP3    H246554   3.558   7.629   0.285
 7701TIP3   OH246555   2.438   7.640   1.055
 7701TIP3    H146556   2.342   7.642   1.038
 7701TIP3    H246557   2.458   7.737   1.057
 7702TIP3   OH246558   2.939   7.611   1.402
 7702TIP3    H146559   3.005   7.565   1.458
 7702TIP3    H246560   2.856   7.565   1.424
 7703TIP3   OH246561   2.154   7.598   0.967
 7703TIP3    H146562   2.169   7.586   0.871
 7703TIP3    H246563   2.112   7.513   0.992
 7704TIP3   OH246564   2.669   7.554   1.389
 7704TIP3    H146565   2.669   7.645   1.351
 7704TIP3    H246566   2.594   7.513   1.344
 7705TIP3   OH246567   2.623   7.500   1.658
 7705TIP3    H146568   2.712   7.462   1.659
 7705TIP3    H246569   2.614   7.515   1.561
 7706TIP3   OH246570   3.661   7.530   1.815
 7706TIP3    H146571   3.742   7.478   1.799
 7706TIP3    H246572   3.696   7.607   1.863
 7707TIP3   OH246573   1.890   7.602   1.298
 7707TIP3    H146574   1.819   7.620   1.362
 7707TIP3    H246575   1.915   7.696   1.278
 7708TIP3   OH246576   3.548   7.576   1.472
 7708TIP3    H146577   3.484   7.566   1.399
 7708TIP3    H246578   3.595   7.490   1.467
 7709TIP3   OH246579   3.433   7.532   0.885
 7709TIP3    H146580   3.500   7.570   0.824
 7709TIP3    H246581   3.368   7.604   0.884
 7710TIP3   OH246582   3.596   7.649   0.722
 7710TIP3    H146583   3.662   7.599   0.670
 7710TIP3    H246584   3.652   7.702   0.782
 7711TIP3   OH246585   2.155   7.571   0.674
 7711TIP3    H146586   2.065   7.558   0.638
 7711TIP3    H246587   2.197   7.487   0.646
 7712TIP3   OH246588   2.056   7.561   0.307
 7712TIP3    H146589   2.044   7.641   0.362
 7712TIP3    H246590   1.965   7.523   0.308
 7713TIP3   OH246591   2.592   7.546   0.729
 7713TIP3    H146592   2.611   7.629   0.680
 7713TIP3    H246593   2.534   7.582   0.797
 7714TIP3   OH246594   3.173   7.563   0.771
 7714TIP3    H146595   3.133   7.519   0.694
 7714TIP3    H246596   3.142   7.502   0.841
 7715TIP3   OH246597   3.267   7.589   0.384
 7715TIP3    H146598   3.230   7.570   0.295
 7715TIP3    H246599   3.245   7.504   0.428
 7716TIP3   OH246600   2.123   7.656   1.616
 7716TIP3    H146601   2.066   7.578   1.623
 7716TIP3    H246602   2.207   7.622   1.655
 7717TIP3   OH246603   2.340   7.555   1.752
 7717TIP3    H146604   2.431   7.520   1.747
 7717TIP3    H246605   2.300   7.501   1.824
 7718TIP3   OH246606   3.191   7.478   1.863
 7718TIP3    H146607   3.220   7.434   1.945
 7718TIP3    H246608   3.280   7.489   1.820
 7719TIP3   OH246609   4.561   7.552   1.028
 7719TIP3    H146610   4.561   7.468   0.978
 7719TIP3    H246611   4.466   7.560   1.054
 7720TIP3   OH246612   5.364   7.546   0.167
 7720TIP3    H146613   5.304   7.541   0.246
 7720TIP3    H246614   5.399   7.636   0.184
 7721TIP3   OH246615   4.308   7.659   1.066
 7721TIP3    H146616   4.214   7.652   1.037
 7721TIP3    H246617   4.323   7.756   1.055
 7722TIP3   OH246618   4.810   7.606   1.399
 7722TIP3    H146619   4.888   7.577   1.452
 7722TIP3    H246620   4.738   7.565   1.451
 7723TIP3   OH246621   4.043   7.596   0.986
 7723TIP3    H146622   4.044   7.571   0.891
 7723TIP3    H246623   4.004   7.514   1.024
 7724TIP3   OH246624   4.555   7.544   1.313
 7724TIP3    H146625   4.514   7.610   1.372
 7724TIP3    H246626   4.482   7.478   1.314
 7725TIP3   OH246627   4.532   7.537   1.627
 7725TIP3    H146628   4.588   7.494   1.694
 7725TIP3    H246629   4.505   7.460   1.575
 7726TIP3   OH246630   5.614   7.563   1.875
 7726TIP3    H146631   5.669   7.542   1.797
 7726TIP3    H246632   5.611   7.661   1.865
 7727TIP3   OH246633   3.776   7.601   1.287
 7727TIP3    H146634   3.711   7.607   1.360
 7727TIP3    H246635   3.804   7.696   1.278
 7728TIP3   OH246636   5.426   7.545   1.480
 7728TIP3    H146637   5.378   7.573   1.400
 7728TIP3    H246638   5.486   7.477   1.442
 7729TIP3   OH246639   5.321   7.526   0.889
 7729TIP3    H146640   5.384   7.582   0.839
 7729TIP3    H246641   5.235   7.559   0.859
 7730TIP3   OH246642   5.487   7.661   0.733
 7730TIP3    H146643   5.543   7.593   0.690
 7730TIP3    H246644   5.546   7.694   0.804
 7731TIP3   OH246645   4.015   7.553   0.723
 7731TIP3    H146646   3.938   7.548   0.661
 7731TIP3    H246647   4.072   7.482   0.683
 7732TIP3   OH246648   3.974   7.556   0.257
 7732TIP3    H146649   3.979   7.653   0.239
 7732TIP3    H246650   3.885   7.550   0.293
 7733TIP3   OH246651   4.483   7.560   0.696
 7733TIP3    H146652   4.472   7.656   0.675
 7733TIP3    H246653   4.444   7.553   0.784
 7734TIP3   OH246654   5.077   7.560   0.767
 7734TIP3    H146655   5.004   7.563   0.703
 7734TIP3    H246656   5.040   7.491   0.825
 7735TIP3   OH246657   5.235   7.556   0.406
 7735TIP3    H146658   5.232   7.642   0.450
 7735TIP3    H246659   5.177   7.496   0.458
 7736TIP3   OH246660   3.985   7.639   1.591
 7736TIP3    H146661   3.950   7.567   1.646
 7736TIP3    H246662   4.079   7.622   1.600
 7737TIP3   OH246663   4.206   7.525   1.749
 7737TIP3    H146664   4.295   7.483   1.748
 7737TIP3    H246665   4.157   7.465   1.811
 7738TIP3   OH246666   5.098   7.484   1.811
 7738TIP3    H146667   5.100   7.504   1.908
 7738TIP3    H246668   5.192   7.499   1.790
 7739TIP3   OH246669   6.448   7.555   1.027
 7739TIP3    H146670   6.450   7.484   0.961
 7739TIP3    H246671   6.352   7.567   1.044
 7740TIP3   OH246672   7.262   7.534   0.230
 7740TIP3    H146673   7.172   7.540   0.267
 7740TIP3    H246674   7.296   7.622   0.256
 7741TIP3   OH246675   6.209   7.659   1.073
 7741TIP3    H146676   6.113   7.650   1.063
 7741TIP3    H246677   6.222   7.758   1.071
 7742TIP3   OH246678   6.709   7.590   1.413
 7742TIP3    H146679   6.749   7.550   1.494
 7742TIP3    H246680   6.619   7.552   1.415
 7743TIP3   OH246681   5.923   7.600   0.978
 7743TIP3    H146682   5.952   7.585   0.887
 7743TIP3    H246683   5.903   7.508   1.006
 7744TIP3   OH246684   6.447   7.549   1.393
 7744TIP3    H146685   6.433   7.644   1.372
 7744TIP3    H246686   6.359   7.515   1.366
 7745TIP3   OH246687   6.434   7.534   1.669
 7745TIP3    H146688   6.510   7.475   1.684
 7745TIP3    H246689   6.420   7.523   1.572
 7746TIP3   OH246690   5.672   7.617   1.302
 7746TIP3    H146691   5.611   7.633   1.376
 7746TIP3    H246692   5.686   7.710   1.271
 7747TIP3   OH246693   7.203   7.548   0.917
 7747TIP3    H146694   7.286   7.593   0.888
 7747TIP3    H246695   7.133   7.588   0.862
 7748TIP3   OH246696   7.445   7.626   0.825
 7748TIP3    H146697   7.477   7.574   0.748
 7748TIP3    H246698   7.435   7.716   0.788
 7749TIP3   OH246699   5.924   7.585   0.646
 7749TIP3    H146700   5.832   7.556   0.648
 7749TIP3    H246701   5.966   7.500   0.617
 7750TIP3   OH246702   5.847   7.553   0.278
 7750TIP3    H146703   5.902   7.632   0.268
 7750TIP3    H246704   5.795   7.555   0.196
 7751TIP3   OH246705   6.379   7.546   0.741
 7751TIP3    H146706   6.411   7.614   0.680
 7751TIP3    H246707   6.318   7.600   0.793
 7752TIP3   OH246708   6.959   7.580   0.770
 7752TIP3    H146709   6.943   7.529   0.689
 7752TIP3    H246710   6.907   7.525   0.831
 7753TIP3   OH246711   7.050   7.596   0.378
 7753TIP3    H146712   6.989   7.568   0.306
 7753TIP3    H246713   7.036   7.522   0.441
 7754TIP3   OH246714   5.883   7.634   1.576
 7754TIP3    H146715   5.836   7.574   1.634
 7754TIP3    H246716   5.976   7.621   1.600
 7755TIP3   OH246717   6.149   7.563   1.732
 7755TIP3    H146718   6.241   7.543   1.707
 7755TIP3    H246719   6.138   7.509   1.811
 7756TIP3   OH246720   7.005   7.498   1.849
 7756TIP3    H146721   6.995   7.466   1.940
 7756TIP3    H246722   7.098   7.471   1.834
 7757TIP3   OH246723   7.444   7.623   1.256
 7757TIP3    H146724   7.462   7.591   1.347
 7757TIP3    H246725   7.510   7.695   1.248
 7758TIP3   OH246726   1.775   1.478   1.968
 7758TIP3    H146727   1.762   1.574   1.989
 7758TIP3    H246728   1.850   1.460   2.025
 7759TIP3   OH246729   0.978   0.377   1.982
 7759TIP3    H146730   0.896   0.386   2.031
 7759TIP3    H246731   0.966   0.292   1.935
 7760TIP3   OH246732   0.681   0.382   1.895
 7760TIP3    H146733   0.639   0.366   1.983
 7760TIP3    H246734   0.668   0.477   1.886
 7761TIP3   OH246735   1.239   0.463   2.120
 7761TIP3    H146736   1.146   0.494   2.133
 7761TIP3    H246737   1.273   0.547   2.087
 7762TIP3   OH246738   1.044   1.286   2.140
 7762TIP3    H146739   1.009   1.348   2.204
 7762TIP3    H246740   0.965   1.235   2.117
 7763TIP3   OH246741   0.198   0.974   2.007
 7763TIP3    H146742   0.267   1.003   2.068
 7763TIP3    H246743   0.144   0.915   2.060
 7764TIP3   OH246744   1.385   1.324   2.033
 7764TIP3    H146745   1.425   1.310   2.120
 7764TIP3    H246746   1.295   1.288   2.048
 7765TIP3   OH246747   1.793   1.732   2.029
 7765TIP3    H146748   1.887   1.731   2.062
 7765TIP3    H246749   1.758   1.806   2.081
 7766TIP3   OH246750   0.822   1.443   1.876
 7766TIP3    H146751   0.780   1.375   1.820
 7766TIP3    H246752   0.819   1.399   1.965
 7767TIP3   OH246753   0.761   1.354   2.125
 7767TIP3    H146754   0.713   1.287   2.175
 7767TIP3    H246755   0.716   1.436   2.153
 7768TIP3   OH246756   0.718   1.650   2.166
 7768TIP3    H146757   0.688   1.653   2.073
 7768TIP3    H246758   0.637   1.672   2.213
 7769TIP3   OH246759   0.589   0.372   2.158
 7769TIP3    H146760   0.549   0.459   2.143
 7769TIP3    H246761   0.531   0.338   2.228
 7770TIP3   OH246762   1.011   1.643   1.898
 7770TIP3    H146763   0.956   1.561   1.899
 7770TIP3    H246764   1.085   1.615   1.841
 7771TIP3   OH246765   1.459   1.575   1.881
 7771TIP3    H146766   1.460   1.520   1.961
 7771TIP3    H246767   1.554   1.593   1.873
 7772TIP3   OH246768   0.530   1.175   1.851
 7772TIP3    H146769   0.525   1.146   1.943
 7772TIP3    H246770   0.614   1.135   1.821
 7773TIP3   OH246771   0.665   0.941   2.110
 7773TIP3    H146772   0.621   0.958   2.194
 7773TIP3    H246773   0.754   0.913   2.136
 7774TIP3   OH246774   0.135   1.364   2.036
 7774TIP3    H146775   0.218   1.388   2.085
 7774TIP3    H246776   0.167   1.297   1.973
 7775TIP3   OH246777   1.575   0.364   1.859
 7775TIP3    H146778   1.617   0.352   1.947
 7775TIP3    H246779   1.481   0.342   1.873
 7776TIP3   OH246780   1.819   0.324   2.057
 7776TIP3    H146781   1.844   0.265   1.983
 7776TIP3    H246782   1.903   0.354   2.097
 7777TIP3   OH246783   0.295   1.741   1.971
 7777TIP3    H146784   0.236   1.803   2.021
 7777TIP3    H246785   0.286   1.656   2.016
 7778TIP3   OH246786   2.924   0.800   1.962
 7778TIP3    H146787   2.932   0.862   2.035
 7778TIP3    H246788   3.014   0.766   1.955
 7779TIP3   OH246789   3.185   0.873   2.160
 7779TIP3    H146790   3.237   0.864   2.243
 7779TIP3    H246791   3.217   0.958   2.127
 7780TIP3   OH246792   3.527   0.069   2.167
 7780TIP3    H146793   3.445   0.099   2.128
 7780TIP3    H246794   3.585   0.146   2.152
 7781TIP3   OH246795   3.655   1.487   1.985
 7781TIP3    H146796   3.646   1.578   2.016
 7781TIP3    H246797   3.698   1.451   2.063
 7782TIP3   OH246798   3.337   0.958   1.940
 7782TIP3    H146799   3.328   0.874   1.989
 7782TIP3    H246800   3.421   0.991   1.978
 7783TIP3   OH246801   2.552   0.421   1.948
 7783TIP3    H146802   2.552   0.444   2.043
 7783TIP3    H246803   2.487   0.484   1.912
 7784TIP3   OH246804   2.038   0.453   2.185
 7784TIP3    H146805   2.054   0.537   2.140
 7784TIP3    H246806   1.978   0.484   2.257
 7785TIP3   OH246807   2.382   0.732   2.059
 7785TIP3    H146808   2.311   0.697   2.002
 7785TIP3    H246809   2.463   0.719   2.008
 7786TIP3   OH246810   3.283   0.614   2.103
 7786TIP3    H146811   3.347   0.627   2.175
 7786TIP3    H246812   3.225   0.691   2.119
 7787TIP3   OH246813   2.104   0.982   2.027
 7787TIP3    H146814   2.198   0.982   2.003
 7787TIP3    H246815   2.068   1.050   1.965
 7788TIP3   OH246816   2.556   1.338   2.192
 7788TIP3    H146817   2.644   1.298   2.212
 7788TIP3    H246818   2.583   1.430   2.214
 7789TIP3   OH246819   2.067   0.679   1.989
 7789TIP3    H146820   2.057   0.753   2.052
 7789TIP3    H246821   1.976   0.658   1.966
 7790TIP3   OH246822   3.339   1.555   1.879
 7790TIP3    H146823   3.374   1.541   1.968
 7790TIP3    H246824   3.415   1.572   1.823
 7791TIP3   OH246825   2.447   1.153   1.878
 7791TIP3    H146826   2.475   1.084   1.939
 7791TIP3    H246827   2.529   1.155   1.822
 7792TIP3   OH246828   3.614   1.022   1.871
 7792TIP3    H146829   3.570   0.991   1.791
 7792TIP3    H246830   3.589   1.117   1.872
 7793TIP3   OH246831   1.993   1.269   2.014
 7793TIP3    H146832   2.054   1.341   1.996
 7793TIP3    H246833   1.985   1.223   1.926
 7794TIP3   OH246834   3.608   0.611   1.921
 7794TIP3    H146835   3.596   0.706   1.936
 7794TIP3    H246836   3.541   0.588   1.854
 7795TIP3   OH246837   3.458   0.383   1.879
 7795TIP3    H146838   3.457   0.442   1.956
 7795TIP3    H246839   3.369   0.341   1.882
 7796TIP3   OH246840   3.702   0.261   2.052
 7796TIP3    H146841   3.715   0.187   1.987
 7796TIP3    H246842   3.661   0.327   1.994
 7797TIP3   OH246843   1.996   0.103   2.139
 7797TIP3    H146844   2.024   0.154   2.060
 7797TIP3    H246845   1.911   0.143   2.162
 7798TIP3   OH246846   2.139   0.236   1.960
 7798TIP3    H146847   2.212   0.200   1.905
 7798TIP3    H246848   2.180   0.270   2.042
 7799TIP3   OH246849   2.180   1.724   1.917
 7799TIP3    H146850   2.122   1.742   1.995
 7799TIP3    H246851   2.256   1.683   1.960
 7800TIP3   OH246852   5.233   0.979   1.980
 7800TIP3    H146853   5.202   0.996   1.890
 7800TIP3    H246854   5.329   0.967   1.966
 7801TIP3   OH246855   4.456   0.393   1.932
 7801TIP3    H146856   4.393   0.331   1.972
 7801TIP3    H246857   4.395   0.465   1.906
 7802TIP3   OH246858   4.988   0.450   2.091
 7802TIP3    H146859   4.996   0.513   2.017
 7802TIP3    H246860   5.079   0.442   2.124
 7803TIP3   OH246861   4.814   1.229   2.126
 7803TIP3    H146862   4.879   1.296   2.150
 7803TIP3    H246863   4.741   1.244   2.187
 7804TIP3   OH246864   4.557   1.447   1.878
 7804TIP3    H146865   4.591   1.382   1.813
 7804TIP3    H246866   4.513   1.386   1.938
 7805TIP3   OH246867   4.335   0.322   2.181
 7805TIP3    H146868   4.307   0.417   2.183
 7805TIP3    H246869   4.430   0.331   2.173
 7806TIP3   OH246870   4.788   1.636   1.885
 7806TIP3    H146871   4.724   1.563   1.888
 7806TIP3    H246872   4.869   1.588   1.911
 7807TIP3   OH246873   4.311   1.139   1.879
 7807TIP3    H146874   4.329   1.085   1.958
 7807TIP3    H246875   4.395   1.126   1.829
 7808TIP3   OH246876   4.792   1.299   1.825
 7808TIP3    H146877   4.771   1.268   1.914
 7808TIP3    H246878   4.853   1.227   1.801
 7809TIP3   OH246879   4.405   0.958   2.131
 7809TIP3    H146880   4.338   0.891   2.155
 7809TIP3    H246881   4.462   0.909   2.069
 7810TIP3   OH246882   4.532   0.801   1.938
 7810TIP3    H146883   4.448   0.753   1.926
 7810TIP3    H246884   4.571   0.800   1.850
 7811TIP3   OH246885   5.490   1.013   1.911
 7811TIP3    H146886   5.480   0.976   1.823
 7811TIP3    H246887   5.528   1.100   1.893
 7812TIP3   OH246888   5.409   0.645   1.943
 7812TIP3    H146889   5.490   0.643   1.891
 7812TIP3    H246890   5.377   0.553   1.935
 7813TIP3   OH246891   5.336   0.383   1.941
 7813TIP3    H146892   5.389   0.340   1.871
 7813TIP3    H246893   5.252   0.333   1.928
 7814TIP3   OH246894   5.641   0.288   2.007
 7814TIP3    H146895   5.627   0.218   1.940
 7814TIP3    H246896   5.608   0.369   1.965
 7815TIP3   OH246897   3.955   0.193   2.133
 7815TIP3    H146898   3.947   0.139   2.053
 7815TIP3    H246899   3.862   0.217   2.149
 7816TIP3   OH246900   4.048   1.705   1.914
 7816TIP3    H146901   3.985   1.682   1.985
 7816TIP3    H246902   4.123   1.648   1.933
 7817TIP3   OH246903   6.709   0.747   1.932
 7817TIP3    H146904   6.695   0.773   2.025
 7817TIP3    H246905   6.800   0.707   1.936
 7818TIP3   OH246906   6.932   0.865   2.109
 7818TIP3    H146907   6.952   0.866   2.204
 7818TIP3    H246908   6.985   0.941   2.078
 7819TIP3   OH246909   7.085   1.055   1.976
 7819TIP3    H146910   7.074   1.026   1.883
 7819TIP3    H246911   7.178   1.030   1.996
 7820TIP3   OH246912   6.668   0.344   1.961
 7820TIP3    H146913   6.660   0.360   2.056
 7820TIP3    H246914   6.600   0.274   1.945
 7821TIP3   OH246915   6.789   1.280   2.169
 7821TIP3    H146916   6.793   1.367   2.215
 7821TIP3    H246917   6.698   1.253   2.182
 7822TIP3   OH246918   7.451   0.630   2.211
 7822TIP3    H146919   7.398   0.631   2.131
 7822TIP3    H246920   7.467   0.726   2.220
 7823TIP3   OH246921   7.075   1.338   2.030
 7823TIP3    H146922   7.088   1.269   2.098
 7823TIP3    H246923   7.007   1.294   1.977
 7824TIP3   OH246924   6.450   1.399   1.883
 7824TIP3    H146925   6.431   1.321   1.829
 7824TIP3    H246926   6.412   1.369   1.968
 7825TIP3   OH246927   6.032   1.072   2.160
 7825TIP3    H146928   6.011   1.056   2.252
 7825TIP3    H246929   6.062   1.164   2.154
 7826TIP3   OH246930   6.039   1.355   2.043
 7826TIP3    H146931   6.110   1.384   2.103
 7826TIP3    H246932   6.096   1.317   1.973
 7827TIP3   OH246933   6.680   1.659   1.896
 7827TIP3    H146934   6.629   1.577   1.915
 7827TIP3    H246935   6.753   1.624   1.840
 7828TIP3   OH246936   7.124   1.587   1.919
 7828TIP3    H146937   7.121   1.503   1.970
 7828TIP3    H246938   7.195   1.570   1.856
 7829TIP3   OH246939   6.189   1.191   1.878
 7829TIP3    H146940   6.167   1.118   1.937
 7829TIP3    H246941   6.269   1.159   1.831
 7830TIP3   OH246942   6.783   1.283   1.859
 7830TIP3    H146943   6.760   1.259   1.950
 7830TIP3    H246944   6.764   1.195   1.820
 7831TIP3   OH246945   7.354   1.034   1.929
 7831TIP3    H146946   7.346   0.992   1.841
 7831TIP3    H246947   7.386   1.124   1.907
 7832TIP3   OH246948   6.420   1.937   2.117
 7832TIP3    H146949   6.427   1.844   2.142
 7832TIP3    H246950   6.410   1.934   2.021
 7833TIP3   OH246951   5.764   1.309   1.992
 7833TIP3    H146952   5.861   1.318   2.000
 7833TIP3    H246953   5.756   1.242   1.919
 7834TIP3   OH246954   7.457   0.892   2.148
 7834TIP3    H146955   7.398   0.921   2.075
 7834TIP3    H246956   7.425   0.947   2.223
 7835TIP3   OH246957   7.370   0.631   1.934
 7835TIP3    H146958   7.374   0.672   1.847
 7835TIP3    H246959   7.311   0.554   1.916
 7836TIP3   OH246960   7.252   0.397   1.875
 7836TIP3    H146961   7.335   0.360   1.838
 7836TIP3    H246962   7.206   0.316   1.898
 7837TIP3   OH246963   7.453   0.241   2.057
 7837TIP3    H146964   7.436   0.225   1.962
 7837TIP3    H246965   7.516   0.317   2.051
 7838TIP3   OH246966   5.846   0.118   2.115
 7838TIP3    H146967   5.806   0.196   2.071
 7838TIP3    H246968   5.790   0.100   2.191
 7839TIP3   OH246969   5.969   1.751   1.955
 7839TIP3    H146970   5.904   1.790   2.018
 7839TIP3    H246971   6.025   1.699   2.014
 7840TIP3   OH246972   7.608   0.454   2.036
 7840TIP3    H146973   7.688   0.481   1.989
 7840TIP3    H246974   7.551   0.532   2.026
 7841TIP3   OH246975   1.069   2.661   1.960
 7841TIP3    H146976   1.092   2.678   2.053
 7841TIP3    H246977   1.132   2.589   1.940
 7842TIP3   OH246978   1.645   1.923   2.169
 7842TIP3    H146979   1.600   1.858   2.226
 7842TIP3    H246980   1.632   2.001   2.224
 7843TIP3   OH246981   1.378   2.888   1.966
 7843TIP3    H146982   1.427   2.888   1.881
 7843TIP3    H246983   1.433   2.937   2.030
 7844TIP3   OH246984   0.933   2.225   2.023
 7844TIP3    H146985   0.850   2.273   2.032
 7844TIP3    H246986   0.905   2.154   1.962
 7845TIP3   OH246987   0.663   2.288   1.951
 7845TIP3    H146988   0.651   2.314   2.044
 7845TIP3    H246989   0.608   2.353   1.903
 7846TIP3   OH246990   0.558   2.552   2.075
 7846TIP3    H146991   0.558   2.572   1.981
 7846TIP3    H246992   0.617   2.622   2.107
 7847TIP3   OH246993   1.244   2.315   2.096
 7847TIP3    H146994   1.150   2.328   2.118
 7847TIP3    H246995   1.288   2.365   2.167
 7848TIP3   OH246996   1.087   3.170   2.090
 7848TIP3    H146997   1.070   3.247   2.147
 7848TIP3    H246998   1.029   3.104   2.130
 7849TIP3   OH246999   0.217   2.808   2.022
 7849TIP3    H147000   0.296   2.787   2.074
 7849TIP3    H247001   0.151   2.754   2.068
 7850TIP3   OH247002   1.820   3.620   2.069
 7850TIP3    H147003   1.898   3.675   2.071
 7850TIP3    H247004   1.752   3.684   2.100
 7851TIP3   OH247005   0.794   3.317   1.873
 7851TIP3    H147006   0.811   3.289   1.782
 7851TIP3    H247007   0.756   3.235   1.907
 7852TIP3   OH247008   1.018   3.526   1.884
 7852TIP3    H147009   0.958   3.449   1.891
 7852TIP3    H247010   1.097   3.489   1.839
 7853TIP3   OH247011   1.469   3.448   1.877
 7853TIP3    H147012   1.529   3.438   1.952
 7853TIP3    H247013   1.531   3.473   1.804
 7854TIP3   OH247014   0.589   3.073   1.927
 7854TIP3    H147015   0.589   2.999   1.989
 7854TIP3    H247016   0.654   3.039   1.861
 7855TIP3   OH247017   1.093   3.185   1.819
 7855TIP3    H147018   1.084   3.181   1.917
 7855TIP3    H247019   1.113   3.089   1.807
 7856TIP3   OH247020   0.777   2.681   1.914
 7856TIP3    H147021   0.776   2.699   1.819
 7856TIP3    H247022   0.871   2.687   1.938
 7857TIP3   OH247023   0.779   3.679   2.060
 7857TIP3    H147024   0.852   3.695   2.122
 7857TIP3    H247025   0.759   3.769   2.028
 7858TIP3   OH247026   0.184   3.167   2.045
 7858TIP3    H147027   0.271   3.203   2.026
 7858TIP3    H247028   0.171   3.113   1.963
 7859TIP3   OH247029   1.554   2.271   1.915
 7859TIP3    H147030   1.615   2.239   1.848
 7859TIP3    H247031   1.467   2.251   1.875
 7860TIP3   OH247032   0.180   1.966   2.078
 7860TIP3    H147033   0.242   2.037   2.053
 7860TIP3    H247034   0.171   1.984   2.173
 7861TIP3   OH247035   0.395   2.156   2.033
 7861TIP3    H147036   0.459   2.104   1.982
 7861TIP3    H247037   0.450   2.227   2.070
 7862TIP3   OH247038   1.046   3.638   2.155
 7862TIP3    H147039   1.098   3.701   2.103
 7862TIP3    H247040   1.020   3.574   2.087
 7863TIP3   OH247041   0.289   3.649   1.956
 7863TIP3    H147042   0.258   3.708   2.029
 7863TIP3    H247043   0.353   3.594   2.003
 7864TIP3   OH247044   3.335   2.895   1.987
 7864TIP3    H147045   3.301   2.900   1.896
 7864TIP3    H247046   3.431   2.908   1.973
 7865TIP3   OH247047   3.678   3.633   2.048
 7865TIP3    H147048   3.772   3.610   2.040
 7865TIP3    H247049   3.677   3.719   2.005
 7866TIP3   OH247050   2.684   3.329   1.878
 7866TIP3    H147051   2.676   3.289   1.790
 7866TIP3    H247052   2.670   3.249   1.931
 7867TIP3   OH247053   2.873   3.428   2.138
 7867TIP3    H147054   2.833   3.484   2.205
 7867TIP3    H247055   2.886   3.489   2.064
 7868TIP3   OH247056   2.062   2.508   1.960
 7868TIP3    H147057   2.141   2.478   2.010
 7868TIP3    H247058   2.042   2.593   1.996
 7869TIP3   OH247059   2.883   3.528   1.894
 7869TIP3    H147060   2.835   3.442   1.899
 7869TIP3    H247061   2.965   3.505   1.845
 7870TIP3   OH247062   3.008   3.149   1.858
 7870TIP3    H147063   2.974   3.151   1.948
 7870TIP3    H247064   2.999   3.051   1.845
 7871TIP3   OH247065   2.545   2.822   2.130
 7871TIP3    H147066   2.485   2.801   2.205
 7871TIP3    H247067   2.630   2.831   2.175
 7872TIP3   OH247068   3.578   2.962   1.868
 7872TIP3    H147069   3.574   2.928   1.777
 7872TIP3    H247070   3.656   3.017   1.867
 7873TIP3   OH247071   2.645   3.699   2.054
 7873TIP3    H147072   2.736   3.678   2.028
 7873TIP3    H247073   2.623   3.768   1.987
 7874TIP3   OH247074   3.584   2.523   1.960
 7874TIP3    H147075   3.599   2.572   1.878
 7874TIP3    H247076   3.528   2.448   1.932
 7875TIP3   OH247077   3.441   2.290   1.911
 7875TIP3    H147078   3.523   2.247   1.943
 7875TIP3    H247079   3.399   2.218   1.862
 7876TIP3   OH247080   3.659   2.137   2.039
 7876TIP3    H147081   3.689   2.060   1.986
 7876TIP3    H247082   3.744   2.172   2.071
 7877TIP3   OH247083   5.522   3.442   2.023
 7877TIP3    H147084   5.596   3.502   2.013
 7877TIP3    H247085   5.556   3.360   1.985
 7878TIP3   OH247086   5.129   2.872   1.975
 7878TIP3    H147087   5.200   2.871   1.909
 7878TIP3    H247088   5.173   2.841   2.056
 7879TIP3   OH247089   4.803   3.145   2.130
 7879TIP3    H147090   4.883   3.195   2.151
 7879TIP3    H247091   4.832   3.057   2.162
 7880TIP3   OH247092   3.970   2.803   2.040
 7880TIP3    H147093   4.034   2.856   2.089
 7880TIP3    H247094   3.900   2.865   2.017
 7881TIP3   OH247095   5.196   3.150   2.051
 7881TIP3    H147096   5.260   3.146   2.127
 7881TIP3    H247097   5.166   3.057   2.059
 7882TIP3   OH247098   4.590   3.325   1.884
 7882TIP3    H147099   4.587   3.292   1.793
 7882TIP3    H247100   4.539   3.256   1.929
 7883TIP3   OH247101   4.106   3.213   2.041
 7883TIP3    H147102   4.126   3.262   2.121
 7883TIP3    H247103   4.192   3.190   2.003
 7884TIP3   OH247104   4.001   2.490   1.960
 7884TIP3    H147105   4.057   2.507   2.037
 7884TIP3    H247106   3.914   2.489   2.002
 7885TIP3   OH247107   4.799   3.515   1.911
 7885TIP3    H147108   4.732   3.444   1.903
 7885TIP3    H247109   4.869   3.485   1.849
 7886TIP3   OH247110   4.329   3.063   1.885
 7886TIP3    H147111   4.290   2.982   1.922
 7886TIP3    H247112   4.407   3.029   1.837
 7887TIP3   OH247113   4.886   3.199   1.855
 7887TIP3    H147114   4.828   3.181   1.930
 7887TIP3    H247115   4.902   3.105   1.830
 7888TIP3   OH247116   4.554   2.708   1.943
 7888TIP3    H147117   4.485   2.685   1.878
 7888TIP3    H247118   4.635   2.705   1.889
 7889TIP3   OH247119   4.585   3.736   2.094
 7889TIP3    H147120   4.646   3.812   2.092
 7889TIP3    H247121   4.528   3.759   2.019
 7890TIP3   OH247122   3.850   3.153   1.988
 7890TIP3    H147123   3.942   3.180   2.012
 7890TIP3    H247124   3.862   3.111   1.900
 7891TIP3   OH247125   5.530   2.508   1.950
 7891TIP3    H147126   5.481   2.555   2.020
 7891TIP3    H247127   5.463   2.447   1.916
 7892TIP3   OH247128   5.316   2.301   1.918
 7892TIP3    H147129   5.398   2.251   1.932
 7892TIP3    H247130   5.290   2.265   1.832
 7893TIP3   OH247131   5.540   2.131   2.060
 7893TIP3    H147132   5.633   2.103   2.061
 7893TIP3    H247133   5.538   2.165   2.152
 7894TIP3   OH247134   4.070   2.174   2.002
 7894TIP3    H147135   4.067   2.079   1.988
 7894TIP3    H247136   4.042   2.182   2.095
 7895TIP3   OH247137   4.057   3.590   1.979
 7895TIP3    H147138   4.052   3.599   2.076
 7895TIP3    H247139   4.146   3.552   1.972
 7896TIP3   OH247140   6.761   2.661   1.956
 7896TIP3    H147141   6.728   2.692   2.042
 7896TIP3    H247142   6.766   2.565   1.972
 7897TIP3   OH247143   6.651   2.266   1.954
 7897TIP3    H147144   6.704   2.258   2.036
 7897TIP3    H247145   6.581   2.198   1.967
 7898TIP3   OH247146   6.283   2.262   1.933
 7898TIP3    H147147   6.210   2.202   1.958
 7898TIP3    H247148   6.233   2.342   1.910
 7899TIP3   OH247149   7.466   2.466   2.202
 7899TIP3    H147150   7.461   2.543   2.143
 7899TIP3    H247151   7.542   2.493   2.257
 7900TIP3   OH247152   5.864   2.547   1.931
 7900TIP3    H147153   5.888   2.573   2.021
 7900TIP3    H247154   5.768   2.535   1.940
 7901TIP3   OH247155   6.648   3.494   1.862
 7901TIP3    H147156   6.640   3.416   1.917
 7901TIP3    H247157   6.738   3.481   1.824
 7902TIP3   OH247158   6.209   3.037   1.896
 7902TIP3    H147159   6.233   2.961   1.952
 7902TIP3    H247160   6.288   3.049   1.840
 7903TIP3   OH247161   6.719   3.185   1.919
 7903TIP3    H147162   6.787   3.171   1.987
 7903TIP3    H247163   6.718   3.097   1.875
 7904TIP3   OH247164   6.274   2.833   2.115
 7904TIP3    H147165   6.247   2.778   2.190
 7904TIP3    H247166   6.315   2.760   2.066
 7905TIP3   OH247167   7.368   2.920   1.920
 7905TIP3    H147168   7.326   2.901   1.834
 7905TIP3    H247169   7.361   3.018   1.917
 7906TIP3   OH247170   7.462   2.799   2.140
 7906TIP3    H147171   7.433   2.840   2.055
 7906TIP3    H247172   7.500   2.872   2.189
 7907TIP3   OH247173   7.250   2.303   1.918
 7907TIP3    H147174   7.292   2.264   1.839
 7907TIP3    H247175   7.161   2.264   1.912
 7908TIP3   OH247176   6.030   2.178   1.985
 7908TIP3    H147177   6.024   2.081   1.988
 7908TIP3    H247178   5.979   2.204   2.063
 7909TIP3   OH247179   7.628   3.179   2.054
 7909TIP3    H147180   7.726   3.175   2.050
 7909TIP3    H247181   7.601   3.127   1.976
 7910TIP3   OH247182   1.048   4.539   2.005
 7910TIP3    H147183   1.111   4.547   2.079
 7910TIP3    H247184   1.106   4.501   1.937
 7911TIP3   OH247185   1.631   3.841   2.156
 7911TIP3    H147186   1.566   3.831   2.226
 7911TIP3    H247187   1.674   3.928   2.168
 7912TIP3   OH247188   1.760   5.247   1.980
 7912TIP3    H147189   1.803   5.328   2.013
 7912TIP3    H247190   1.791   5.183   2.046
 7913TIP3   OH247191   1.397   4.778   1.955
 7913TIP3    H147192   1.405   4.777   1.858
 7913TIP3    H247193   1.491   4.781   1.980
 7914TIP3   OH247194   0.980   4.114   1.979
 7914TIP3    H147195   0.977   4.125   2.075
 7914TIP3    H247196   0.935   4.029   1.968
 7915TIP3   OH247197   0.195   4.234   2.213
 7915TIP3    H147198   0.185   4.245   2.116
 7915TIP3    H247199   0.192   4.138   2.224
 7916TIP3   OH247200   1.255   4.194   2.070
 7916TIP3    H147201   1.165   4.211   2.103
 7916TIP3    H247202   1.305   4.259   2.126
 7917TIP3   OH247203   1.354   4.410   2.199
 7917TIP3    H147204   1.396   4.408   2.287
 7917TIP3    H247205   1.401   4.485   2.161
 7918TIP3   OH247206   0.223   4.663   2.026
 7918TIP3    H147207   0.276   4.631   2.101
 7918TIP3    H247208   0.140   4.687   2.074
 7919TIP3   OH247209   1.844   5.521   2.058
 7919TIP3    H147210   1.863   5.590   1.992
 7919TIP3    H247211   1.771   5.565   2.105
 7920TIP3   OH247212   0.820   5.171   1.919
 7920TIP3    H147213   0.816   5.188   1.822
 7920TIP3    H247214   0.754   5.101   1.927
 7921TIP3   OH247215   0.153   4.383   1.967
 7921TIP3    H147216   0.175   4.478   1.973
 7921TIP3    H247217   0.149   4.367   1.872
 7922TIP3   OH247218   0.972   5.407   1.913
 7922TIP3    H147219   0.921   5.329   1.941
 7922TIP3    H247220   1.014   5.371   1.833
 7923TIP3   OH247221   1.436   5.350   1.854
 7923TIP3    H147222   1.506   5.350   1.921
 7923TIP3    H247223   1.487   5.358   1.772
 7924TIP3   OH247224   0.561   4.896   1.893
 7924TIP3    H147225   0.607   4.840   1.960
 7924TIP3    H247226   0.634   4.900   1.826
 7925TIP3   OH247227   0.649   4.759   2.137
 7925TIP3    H147228   0.665   4.735   2.230
 7925TIP3    H247229   0.710   4.696   2.092
 7926TIP3   OH247230   0.772   4.575   1.953
 7926TIP3    H147231   0.750   4.593   1.859
 7926TIP3    H247232   0.869   4.564   1.949
 7927TIP3   OH247233   1.726   4.771   1.885
 7927TIP3    H147234   1.692   4.761   1.794
 7927TIP3    H247235   1.732   4.869   1.893
 7928TIP3   OH247236   0.756   5.617   2.027
 7928TIP3    H147237   0.831   5.562   2.054
 7928TIP3    H247238   0.799   5.697   1.996
 7929TIP3   OH247239   1.884   4.669   2.079
 7929TIP3    H147240   1.820   4.700   2.012
 7929TIP3    H247241   1.888   4.745   2.139
 7930TIP3   OH247242   1.638   4.400   1.931
 7930TIP3    H147243   1.703   4.454   1.883
 7930TIP3    H247244   1.628   4.321   1.874
 7931TIP3   OH247245   1.602   4.130   1.838
 7931TIP3    H147246   1.629   4.119   1.931
 7931TIP3    H247247   1.506   4.112   1.837
 7932TIP3   OH247248   1.818   4.036   2.057
 7932TIP3    H147249   1.843   3.964   1.994
 7932TIP3    H247250   1.905   4.071   2.081
 7933TIP3   OH247251   0.198   3.818   2.150
 7933TIP3    H147252   0.122   3.869   2.116
 7933TIP3    H247253   0.161   3.781   2.233
 7934TIP3   OH247254   0.310   4.015   1.977
 7934TIP3    H147255   0.352   3.957   1.909
 7934TIP3    H247256   0.334   3.959   2.053
 7935TIP3   OH247257   0.339   5.497   1.994
 7935TIP3    H147258   0.380   5.578   2.029
 7935TIP3    H247259   0.416   5.456   1.948
 7936TIP3   OH247260   2.954   4.562   1.963
 7936TIP3    H147261   2.937   4.554   2.059
 7936TIP3    H247262   3.027   4.499   1.948
 7937TIP3   OH247263   3.656   5.285   1.998
 7937TIP3    H147264   3.652   5.371   2.042
 7937TIP3    H247265   3.740   5.252   2.033
 7938TIP3   OH247266   3.188   5.537   2.042
 7938TIP3    H147267   3.188   5.458   1.984
 7938TIP3    H247268   3.099   5.535   2.082
 7939TIP3   OH247269   2.561   4.176   1.960
 7939TIP3    H147270   2.591   4.222   2.044
 7939TIP3    H247271   2.495   4.240   1.926
 7940TIP3   OH247272   3.105   4.218   2.022
 7940TIP3    H147273   3.021   4.201   2.066
 7940TIP3    H247274   3.152   4.266   2.094
 7941TIP3   OH247275   3.224   4.390   2.197
 7941TIP3    H147276   3.291   4.386   2.265
 7941TIP3    H247277   3.243   4.476   2.156
 7942TIP3   OH247278   2.964   5.079   2.116
 7942TIP3    H147279   2.904   5.152   2.138
 7942TIP3    H247280   2.918   4.998   2.141
 7943TIP3   OH247281   3.318   5.116   2.039
 7943TIP3    H147282   3.322   5.092   2.132
 7943TIP3    H247283   3.223   5.110   2.020
 7944TIP3   OH247284   2.704   5.209   1.890
 7944TIP3    H147285   2.702   5.171   1.801
 7944TIP3    H247286   2.641   5.148   1.932
 7945TIP3   OH247287   2.273   5.129   2.053
 7945TIP3    H147288   2.287   5.179   1.972
 7945TIP3    H247289   2.313   5.043   2.029
 7946TIP3   OH247290   2.114   4.423   1.948
 7946TIP3    H147291   2.157   4.464   2.028
 7946TIP3    H247292   2.026   4.407   1.986
 7947TIP3   OH247293   2.902   5.399   1.878
 7947TIP3    H147294   2.840   5.331   1.912
 7947TIP3    H247295   2.954   5.349   1.813
 7948TIP3   OH247296   3.340   5.350   1.869
 7948TIP3    H147297   3.373   5.289   1.938
 7948TIP3    H247298   3.415   5.350   1.805
 7949TIP3   OH247299   2.439   4.934   1.887
 7949TIP3    H147300   2.419   4.846   1.923
 7949TIP3    H247301   2.517   4.913   1.831
 7950TIP3   OH247302   3.042   5.070   1.858
 7950TIP3    H147303   2.985   5.064   1.937
 7950TIP3    H247304   3.032   4.977   1.825
 7951TIP3   OH247305   2.653   4.629   1.953
 7951TIP3    H147306   2.599   4.569   1.901
 7951TIP3    H247307   2.738   4.584   1.961
 7952TIP3   OH247308   3.585   4.805   1.916
 7952TIP3    H147309   3.577   4.773   1.825
 7952TIP3    H247310   3.622   4.893   1.902
 7953TIP3   OH247311   3.524   4.376   1.955
 7953TIP3    H147312   3.564   4.441   1.897
 7953TIP3    H247313   3.500   4.303   1.894
 7954TIP3   OH247314   3.458   4.140   1.845
 7954TIP3    H147315   3.505   4.106   1.923
 7954TIP3    H247316   3.377   4.085   1.841
 7955TIP3   OH247317   3.665   4.002   2.056
 7955TIP3    H147318   3.700   3.954   1.978
 7955TIP3    H247319   3.748   4.042   2.088
 7956TIP3   OH247320   2.171   4.036   2.004
 7956TIP3    H147321   2.242   3.986   1.962
 7956TIP3    H247322   2.212   4.091   2.072
 7957TIP3   OH247323   2.184   5.514   1.935
 7957TIP3    H147324   2.114   5.493   1.997
 7957TIP3    H247325   2.251   5.447   1.951
 7958TIP3   OH247326   4.835   4.602   2.007
 7958TIP3    H147327   4.906   4.645   2.059
 7958TIP3    H247328   4.880   4.520   1.980
 7959TIP3   OH247329   5.095   4.678   2.139
 7959TIP3    H147330   5.053   4.621   2.204
 7959TIP3    H247331   5.153   4.613   2.093
 7960TIP3   OH247332   5.111   5.553   2.044
 7960TIP3    H147333   5.153   5.477   1.999
 7960TIP3    H247334   5.133   5.540   2.138
 7961TIP3   OH247335   4.759   4.079   2.030
 7961TIP3    H147336   4.705   4.159   2.038
 7961TIP3    H247337   4.712   4.035   1.958
 7962TIP3   OH247338   4.425   4.171   1.932
 7962TIP3    H147339   4.376   4.128   2.006
 7962TIP3    H247340   4.356   4.232   1.897
 7963TIP3   OH247341   5.009   4.199   2.013
 7963TIP3    H147342   4.926   4.159   2.046
 7963TIP3    H247343   5.040   4.251   2.091
 7964TIP3   OH247344   5.098   4.372   2.205
 7964TIP3    H147345   5.137   4.348   2.291
 7964TIP3    H247346   5.179   4.388   2.151
 7965TIP3   OH247347   5.157   5.092   1.994
 7965TIP3    H147348   5.116   5.065   2.078
 7965TIP3    H247349   5.089   5.060   1.933
 7966TIP3   OH247350   4.575   5.217   1.884
 7966TIP3    H147351   4.557   5.150   1.817
 7966TIP3    H247352   4.548   5.169   1.965
 7967TIP3   OH247353   4.478   5.131   2.125
 7967TIP3    H147354   4.536   5.079   2.184
 7967TIP3    H247355   4.492   5.222   2.161
 7968TIP3   OH247356   4.505   5.386   2.203
 7968TIP3    H147357   4.507   5.443   2.124
 7968TIP3    H247358   4.506   5.455   2.271
 7969TIP3   OH247359   4.308   4.082   2.164
 7969TIP3    H147360   4.261   4.140   2.226
 7969TIP3    H247361   4.395   4.076   2.206
 7970TIP3   OH247362   3.968   4.422   1.956
 7970TIP3    H147363   3.984   4.490   2.023
 7970TIP3    H247364   3.957   4.342   2.012
 7971TIP3   OH247365   4.783   5.385   1.892
 7971TIP3    H147366   4.721   5.309   1.906
 7971TIP3    H247367   4.855   5.342   1.841
 7972TIP3   OH247368   5.249   5.344   1.894
 7972TIP3    H147369   5.271   5.276   1.960
 7972TIP3    H247370   5.317   5.333   1.824
 7973TIP3   OH247371   4.325   4.899   1.894
 7973TIP3    H147372   4.352   4.837   1.965
 7973TIP3    H247373   4.405   4.896   1.837
 7974TIP3   OH247374   4.894   5.070   1.871
 7974TIP3    H147375   4.835   5.070   1.952
 7974TIP3    H247376   4.886   4.973   1.853
 7975TIP3   OH247377   4.418   4.777   2.130
 7975TIP3    H147378   4.402   4.724   2.209
 7975TIP3    H247379   4.475   4.716   2.076
 7976TIP3   OH247380   4.549   4.620   1.963
 7976TIP3    H147381   4.538   4.648   1.870
 7976TIP3    H247382   4.645   4.603   1.968
 7977TIP3   OH247383   5.492   4.793   1.940
 7977TIP3    H147384   5.442   4.749   1.869
 7977TIP3    H247385   5.497   4.886   1.907
 7978TIP3   OH247386   4.518   5.634   2.074
 7978TIP3    H147387   4.615   5.631   2.064
 7978TIP3    H247388   4.501   5.716   2.026
 7979TIP3   OH247389   5.367   4.083   1.875
 7979TIP3    H147390   5.443   4.115   1.927
 7979TIP3    H247391   5.297   4.127   1.925
 7980TIP3   OH247392   5.541   3.995   2.079
 7980TIP3    H147393   5.571   3.951   1.998
 7980TIP3    H247394   5.614   4.059   2.093
 7981TIP3   OH247395   4.070   4.016   2.012
 7981TIP3    H147396   4.116   3.935   1.985
 7981TIP3    H247397   4.113   4.034   2.097
 7982TIP3   OH247398   4.792   5.626   2.003
 7982TIP3    H147399   4.874   5.600   2.047
 7982TIP3    H247400   4.771   5.541   1.958
 7983TIP3   OH247401   4.055   5.503   1.916
 7983TIP3    H147402   4.002   5.491   1.997
 7983TIP3    H247403   4.130   5.441   1.928
 7984TIP3   OH247404   6.729   4.588   1.971
 7984TIP3    H147405   6.718   4.550   2.059
 7984TIP3    H247406   6.805   4.534   1.940
 7985TIP3   OH247407   7.326   3.858   2.138
 7985TIP3    H147408   7.240   3.889   2.173
 7985TIP3    H247409   7.374   3.862   2.223
 7986TIP3   OH247410   6.267   4.203   1.961
 7986TIP3    H147411   6.235   4.120   1.922
 7986TIP3    H247412   6.249   4.266   1.887
 7987TIP3   OH247413   5.710   4.192   2.121
 7987TIP3    H147414   5.784   4.254   2.124
 7987TIP3    H247415   5.640   4.234   2.176
 7988TIP3   OH247416   6.742   5.016   2.136
 7988TIP3    H147417   6.747   5.109   2.162
 7988TIP3    H247418   6.657   4.989   2.174
 7989TIP3   OH247419   5.880   4.688   2.053
 7989TIP3    H147420   5.952   4.668   2.117
 7989TIP3    H247421   5.879   4.785   2.049
 7990TIP3   OH247422   7.087   5.077   2.030
 7990TIP3    H147423   7.097   5.098   2.124
 7990TIP3    H247424   6.991   5.073   2.017
 7991TIP3   OH247425   6.470   5.227   1.872
 7991TIP3    H147426   6.444   5.155   1.812
 7991TIP3    H247427   6.425   5.202   1.955
 7992TIP3   OH247428   6.034   5.154   2.014
 7992TIP3    H147429   6.075   5.187   2.095
 7992TIP3    H247430   6.105   5.100   1.975
 7993TIP3   OH247431   5.884   4.374   1.997
 7993TIP3    H147432   5.928   4.451   2.034
 7993TIP3    H247433   5.801   4.409   1.962
 7994TIP3   OH247434   6.683   5.400   1.875
 7994TIP3    H147435   6.621   5.324   1.884
 7994TIP3    H247436   6.757   5.363   1.822
 7995TIP3   OH247437   6.202   4.919   1.899
 7995TIP3    H147438   6.216   4.859   1.974
 7995TIP3    H247439   6.278   4.896   1.841
 7996TIP3   OH247440   6.778   5.080   1.862
 7996TIP3    H147441   6.756   5.067   1.956
 7996TIP3    H247442   6.771   4.987   1.830
 7997TIP3   OH247443   6.434   4.599   1.913
 7997TIP3    H147444   6.399   4.600   1.821
 7997TIP3    H247445   6.529   4.614   1.897
 7998TIP3   OH247446   7.360   4.797   1.897
 7998TIP3    H147447   7.329   4.771   1.809
 7998TIP3    H247448   7.333   4.891   1.901
 7999TIP3   OH247449   5.768   5.046   1.999
 7999TIP3    H147450   5.848   5.100   2.011
 7999TIP3    H247451   5.777   5.006   1.911
 8000TIP3   OH247452   7.371   4.412   1.910
 8000TIP3    H147453   7.331   4.471   1.845
 8000TIP3    H247454   7.349   4.324   1.875
 8001TIP3   OH247455   7.197   4.148   1.877
 8001TIP3    H147456   7.208   4.110   1.965
 8001TIP3    H247457   7.104   4.124   1.859
 8002TIP3   OH247458   5.948   5.511   1.959
 8002TIP3    H147459   5.909   5.507   2.049
 8002TIP3    H247460   6.023   5.450   1.970
 8003TIP3   OH247461   7.642   5.122   1.926
 8003TIP3    H147462   7.721   5.067   1.906
 8003TIP3    H247463   7.573   5.054   1.915
 8004TIP3   OH247464   1.073   6.433   1.943
 8004TIP3    H147465   1.083   6.440   2.038
 8004TIP3    H247466   1.151   6.376   1.920
 8005TIP3   OH247467   1.304   6.523   2.147
 8005TIP3    H147468   1.247   6.598   2.170
 8005TIP3    H247469   1.355   6.565   2.074
 8006TIP3   OH247470   1.644   5.699   2.160
 8006TIP3    H147471   1.572   5.709   2.224
 8006TIP3    H247472   1.671   5.790   2.143
 8007TIP3   OH247473   1.305   7.401   2.058
 8007TIP3    H147474   1.338   7.317   2.023
 8007TIP3    H247475   1.378   7.440   2.111
 8008TIP3   OH247476   1.445   6.679   1.977
 8008TIP3    H147477   1.409   6.680   1.886
 8008TIP3    H247478   1.536   6.651   1.963
 8009TIP3   OH247479   0.987   6.013   1.962
 8009TIP3    H147480   0.953   6.018   2.052
 8009TIP3    H247481   0.926   5.944   1.929
 8010TIP3   OH247482   0.613   6.024   1.932
 8010TIP3    H147483   0.571   6.000   2.018
 8010TIP3    H247484   0.629   6.118   1.945
 8011TIP3   OH247485   1.217   6.011   2.086
 8011TIP3    H147486   1.134   6.031   2.036
 8011TIP3    H247487   1.248   6.099   2.114
 8012TIP3   OH247488   1.360   6.240   2.170
 8012TIP3    H147489   1.450   6.220   2.200
 8012TIP3    H247490   1.360   6.338   2.175
 8013TIP3   OH247491   0.250   6.625   2.015
 8013TIP3    H147492   0.334   6.625   2.063
 8013TIP3    H247493   0.194   6.564   2.065
 8014TIP3   OH247494   0.827   7.074   1.902
 8014TIP3    H147495   0.804   7.002   1.843
 8014TIP3    H247496   0.802   7.038   1.989
 8015TIP3   OH247497   0.507   5.953   2.166
 8015TIP3    H147498   0.511   6.033   2.220
 8015TIP3    H247499   0.542   5.882   2.224
 8016TIP3   OH247500   1.003   7.280   1.896
 8016TIP3    H147501   0.947   7.200   1.911
 8016TIP3    H247502   1.084   7.255   1.942
 8017TIP3   OH247503   1.438   7.199   1.919
 8017TIP3    H147504   1.465   7.113   1.957
 8017TIP3    H247505   1.499   7.212   1.844
 8018TIP3   OH247506   0.579   6.828   1.891
 8018TIP3    H147507   0.577   6.750   1.948
 8018TIP3    H247508   0.661   6.811   1.839
 8019TIP3   OH247509   0.780   6.375   1.894
 8019TIP3    H147510   0.746   6.459   1.859
 8019TIP3    H247511   0.842   6.400   1.964
 8020TIP3   OH247512   1.668   6.301   1.929
 8020TIP3    H147513   1.631   6.303   1.839
 8020TIP3    H247514   1.636   6.213   1.959
 8021TIP3   OH247515   1.588   6.048   1.942
 8021TIP3    H147516   1.630   5.963   1.961
 8021TIP3    H247517   1.513   6.020   1.886
 8022TIP3   OH247518   0.128   5.712   2.146
 8022TIP3    H147519   0.186   5.757   2.081
 8022TIP3    H247520   0.070   5.787   2.170
 8023TIP3   OH247521   0.294   5.883   2.011
 8023TIP3    H147522   0.345   5.832   1.946
 8023TIP3    H247523   0.364   5.901   2.078
 8024TIP3   OH247524   0.319   7.377   2.005
 8024TIP3    H147525   0.247   7.413   2.061
 8024TIP3    H247526   0.331   7.287   2.038
 8025TIP3   OH247527   2.958   6.424   1.997
 8025TIP3    H147528   2.990   6.456   2.084
 8025TIP3    H247529   3.030   6.363   1.973
 8026TIP3   OH247530   3.209   6.516   2.174
 8026TIP3    H147531   3.275   6.464   2.223
 8026TIP3    H247532   3.268   6.555   2.106
 8027TIP3   OH247533   3.632   7.135   1.980
 8027TIP3    H147534   3.657   7.215   2.029
 8027TIP3    H247535   3.718   7.087   1.981
 8028TIP3   OH247536   3.347   6.653   1.983
 8028TIP3    H147537   3.323   6.656   1.887
 8028TIP3    H247538   3.445   6.644   1.976
 8029TIP3   OH247539   2.869   5.983   2.008
 8029TIP3    H147540   2.805   6.043   2.047
 8029TIP3    H247541   2.809   5.919   1.965
 8030TIP3   OH247542   3.736   7.390   2.097
 8030TIP3    H147543   3.798   7.465   2.085
 8030TIP3    H247544   3.650   7.433   2.078
 8031TIP3   OH247545   2.702   7.046   1.859
 8031TIP3    H147546   2.666   6.966   1.817
 8031TIP3    H247547   2.664   7.040   1.950
 8032TIP3   OH247548   2.629   7.022   2.136
 8032TIP3    H147549   2.642   6.972   2.219
 8032TIP3    H247550   2.627   7.115   2.168
 8033TIP3   OH247551   2.580   7.298   2.167
 8033TIP3    H147552   2.629   7.381   2.164
 8033TIP3    H247553   2.511   7.316   2.233
 8034TIP3   OH247554   2.288   7.038   2.050
 8034TIP3    H147555   2.243   7.065   2.135
 8034TIP3    H247556   2.378   7.033   2.087
 8035TIP3   OH247557   2.899   7.315   1.921
 8035TIP3    H147558   2.870   7.278   2.007
 8035TIP3    H247559   2.968   7.373   1.958
 8036TIP3   OH247560   3.339   7.219   1.886
 8036TIP3    H147561   3.413   7.207   1.949
 8036TIP3    H247562   3.392   7.237   1.804
 8037TIP3   OH247563   2.433   6.795   1.873
 8037TIP3    H147564   2.482   6.734   1.930
 8037TIP3    H247565   2.502   6.803   1.804
 8038TIP3   OH247566   3.010   6.939   1.883
 8038TIP3    H147567   2.950   6.915   1.955
 8038TIP3    H247568   3.013   6.849   1.843
 8039TIP3   OH247569   2.652   6.461   1.930
 8039TIP3    H147570   2.654   6.488   1.835
 8039TIP3    H247571   2.745   6.444   1.948
 8040TIP3   OH247572   3.604   6.695   1.860
 8040TIP3    H147573   3.569   6.666   1.775
 8040TIP3    H247574   3.610   6.792   1.849
 8041TIP3   OH247575   2.677   7.503   1.985
 8041TIP3    H147576   2.768   7.481   2.008
 8041TIP3    H247577   2.691   7.559   1.908
 8042TIP3   OH247578   1.981   6.972   1.999
 8042TIP3    H147579   2.076   6.978   2.019
 8042TIP3    H247580   1.975   6.895   1.938
 8043TIP3   OH247581   3.442   6.071   1.876
 8043TIP3    H147582   3.530   6.045   1.909
 8043TIP3    H247583   3.410   5.988   1.838
 8044TIP3   OH247584   3.655   5.908   2.055
 8044TIP3    H147585   3.637   5.817   2.026
 8044TIP3    H247586   3.667   5.892   2.150
 8045TIP3   OH247587   2.204   7.374   1.918
 8045TIP3    H147588   2.153   7.433   1.978
 8045TIP3    H247589   2.247   7.315   1.982
 8046TIP3   OH247590   5.043   6.607   2.179
 8046TIP3    H147591   5.109   6.636   2.244
 8046TIP3    H247592   5.100   6.606   2.099
 8047TIP3   OH247593   5.560   7.170   2.001
 8047TIP3    H147594   5.566   7.195   2.095
 8047TIP3    H247595   5.624   7.095   2.007
 8048TIP3   OH247596   5.227   6.667   1.987
 8048TIP3    H147597   5.194   6.655   1.896
 8048TIP3    H247598   5.323   6.651   1.974
 8049TIP3   OH247599   4.765   5.983   1.938
 8049TIP3    H147600   4.749   6.003   2.031
 8049TIP3    H247601   4.703   5.908   1.925
 8050TIP3   OH247602   4.384   6.060   1.931
 8050TIP3    H147603   4.307   6.011   1.967
 8050TIP3    H247604   4.340   6.132   1.882
 8051TIP3   OH247605   3.966   6.603   2.009
 8051TIP3    H147606   4.026   6.638   2.077
 8051TIP3    H247607   3.879   6.623   2.048
 8052TIP3   OH247608   4.587   7.076   1.869
 8052TIP3    H147609   4.550   7.012   1.806
 8052TIP3    H247610   4.612   7.011   1.940
 8053TIP3   OH247611   4.756   7.183   2.233
 8053TIP3    H147612   4.670   7.225   2.224
 8053TIP3    H247613   4.819   7.258   2.229
 8054TIP3   OH247614   4.438   7.309   2.201
 8054TIP3    H147615   4.496   7.383   2.177
 8054TIP3    H247616   4.456   7.300   2.296
 8055TIP3   OH247617   4.788   7.251   1.898
 8055TIP3    H147618   4.720   7.180   1.880
 8055TIP3    H247619   4.867   7.213   1.855
 8056TIP3   OH247620   5.229   7.168   1.901
 8056TIP3    H147621   5.279   7.198   1.978
 8056TIP3    H247622   5.267   7.223   1.830
 8057TIP3   OH247623   4.328   6.809   1.888
 8057TIP3    H147624   4.331   6.821   1.985
 8057TIP3    H247625   4.421   6.798   1.863
 8058TIP3   OH247626   4.904   6.929   1.828
 8058TIP3    H147627   4.836   6.923   1.898
 8058TIP3    H247628   4.908   6.833   1.809
 8059TIP3   OH247629   4.527   6.407   1.949
 8059TIP3    H147630   4.446   6.434   1.904
 8059TIP3    H247631   4.582   6.485   1.948
 8060TIP3   OH247632   5.491   6.655   1.916
 8060TIP3    H147633   5.468   6.635   1.824
 8060TIP3    H247634   5.505   6.752   1.908
 8061TIP3   OH247635   4.541   7.504   1.986
 8061TIP3    H147636   4.634   7.479   2.001
 8061TIP3    H247637   4.499   7.419   1.959
 8062TIP3   OH247638   3.889   7.001   1.981
 8062TIP3    H147639   3.932   6.958   2.058
 8062TIP3    H247640   3.893   6.925   1.918
 8063TIP3   OH247641   5.429   6.291   1.972
 8063TIP3    H147642   5.387   6.320   1.890
 8063TIP3    H247643   5.357   6.236   2.009
 8064TIP3   OH247644   5.348   5.977   1.800
 8064TIP3    H147645   5.320   6.029   1.879
 8064TIP3    H247646   5.271   5.989   1.741
 8065TIP3   OH247647   5.519   5.907   2.061
 8065TIP3    H147648   5.575   5.860   1.996
 8065TIP3    H247649   5.541   6.001   2.046
 8066TIP3   OH247650   4.153   5.947   2.009
 8066TIP3    H147651   4.144   5.857   1.973
 8066TIP3    H247652   4.113   5.938   2.096
 8067TIP3   OH247653   4.798   7.447   2.071
 8067TIP3    H147654   4.895   7.445   2.083
 8067TIP3    H247655   4.789   7.361   2.025
 8068TIP3   OH247656   4.072   7.376   1.936
 8068TIP3    H147657   4.005   7.370   2.006
 8068TIP3    H247658   4.140   7.316   1.970
 8069TIP3   OH247659   6.714   6.437   1.978
 8069TIP3    H147660   6.730   6.471   2.069
 8069TIP3    H247661   6.798   6.391   1.960
 8070TIP3   OH247662   6.971   6.519   2.175
 8070TIP3    H147663   7.044   6.511   2.240
 8070TIP3    H247664   7.018   6.575   2.109
 8071TIP3   OH247665   7.228   5.744   2.138
 8071TIP3    H147666   7.260   5.653   2.144
 8071TIP3    H247667   7.302   5.798   2.106
 8072TIP3   OH247668   7.119   6.649   2.000
 8072TIP3    H147669   7.110   6.617   1.909
 8072TIP3    H247670   7.215   6.667   2.006
 8073TIP3   OH247671   6.649   5.974   1.992
 8073TIP3    H147672   6.630   5.934   2.081
 8073TIP3    H247673   6.579   5.925   1.944
 8074TIP3   OH247674   6.268   6.030   1.933
 8074TIP3    H147675   6.332   6.068   1.994
 8074TIP3    H247676   6.239   6.109   1.881
 8075TIP3   OH247677   7.443   6.301   2.201
 8075TIP3    H147678   7.349   6.280   2.219
 8075TIP3    H247679   7.435   6.392   2.165
 8076TIP3   OH247680   6.475   7.076   1.879
 8076TIP3    H147681   6.454   7.032   1.795
 8076TIP3    H247682   6.424   7.023   1.943
 8077TIP3   OH247683   6.329   7.019   2.119
 8077TIP3    H147684   6.401   6.965   2.159
 8077TIP3    H247685   6.348   7.108   2.158
 8078TIP3   OH247686   6.388   7.266   2.202
 8078TIP3    H147687   6.391   7.350   2.148
 8078TIP3    H247688   6.424   7.300   2.288
 8079TIP3   OH247689   6.213   6.794   1.880
 8079TIP3    H147690   6.260   6.819   1.960
 8079TIP3    H247691   6.288   6.772   1.818
 8080TIP3   OH247692   6.762   6.943   1.872
 8080TIP3    H147693   6.674   6.917   1.903
 8080TIP3    H247694   6.792   6.852   1.849
 8081TIP3   OH247695   6.417   6.455   1.933
 8081TIP3    H147696   6.418   6.473   1.837
 8081TIP3    H247697   6.510   6.438   1.954
 8082TIP3   OH247698   7.378   6.689   1.908
 8082TIP3    H147699   7.333   6.667   1.824
 8082TIP3    H247700   7.374   6.787   1.905
 8083TIP3   OH247701   6.441   7.493   2.063
 8083TIP3    H147702   6.425   7.568   2.123
 8083TIP3    H247703   6.420   7.527   1.975
 8084TIP3   OH247704   5.747   6.978   2.032
 8084TIP3    H147705   5.832   6.948   1.996
 8084TIP3    H247706   5.688   6.914   1.990
 8085TIP3   OH247707   7.464   6.563   2.135
 8085TIP3    H147708   7.436   6.611   2.054
 8085TIP3    H247709   7.468   6.636   2.200
 8086TIP3   OH247710   7.287   6.310   1.948
 8086TIP3    H147711   7.354   6.339   1.884
 8086TIP3    H247712   7.272   6.216   1.923
 8087TIP3   OH247713   7.220   6.054   1.891
 8087TIP3    H147714   7.289   5.993   1.921
 8087TIP3    H247715   7.143   5.994   1.882
 8088TIP3   OH247716   7.420   5.947   2.069
 8088TIP3    H147717   7.458   5.871   2.020
 8088TIP3    H247718   7.487   6.016   2.049
 8089TIP3   OH247719   5.945   7.358   1.868
 8089TIP3    H147720   5.948   7.401   1.954
 8089TIP3    H247721   6.030   7.310   1.865
 8090TIP3   OH247722   7.683   5.940   2.236
 8090TIP3    H147723   7.651   6.015   2.182
 8090TIP3    H247724   7.602   5.912   2.283
 8091TIP3   OH247725   7.652   6.986   1.897
 8091TIP3    H147726   7.749   6.972   1.900
 8091TIP3    H247727   7.626   6.912   1.840
 8092TIP3   OH247728   1.677   7.464   2.158
 8092TIP3    H147729   1.584   7.482   2.185
 8092TIP3    H247730   1.698   7.554   2.129
 8093TIP3   OH247731   0.202   7.626   2.090
 8093TIP3    H147732   0.172   7.717   2.092
 8093TIP3    H247733   0.133   7.587   2.148
 8094TIP3   OH247734   3.486   7.521   2.068
 8094TIP3    H147735   3.428   7.487   2.137
 8094TIP3    H247736   3.500   7.614   2.095
 8095TIP3   OH247737   2.056   7.566   2.054
 8095TIP3    H147738   2.048   7.662   2.070
 8095TIP3    H247739   2.053   7.533   2.145
 8096TIP3   OH247740   3.929   7.610   2.100
 8096TIP3    H147741   4.021   7.590   2.080
 8096TIP3    H247742   3.941   7.682   2.164
   7.70779   7.70779   8.50000   0.00000   0.00000   0.00000   0.00000   0.00000   0.00000
