Title
47737
    1CHL1    C3    1   4.211   3.937   6.000
    1CHL1    H3    2   4.109   3.975   5.980
    1CHL1    O3    3   4.230   3.930   6.141
    1CHL1   H3'    4   4.244   4.020   6.170
    1CHL1    C4    5   4.226   3.796   5.942
    1CHL1   H4A    6   4.325   3.755   5.970
    1CHL1   H4B    7   4.150   3.730   5.990
    1CHL1    C5    8   4.211   3.798   5.792
    1CHL1    C6    9   4.116   3.725   5.730
    1CHL1    H6   10   4.050   3.659   5.788
    1CHL1    C7   11   4.103   3.719   5.580
    1CHL1   H7A   12   4.082   3.616   5.545
    1CHL1   H7B   13   4.017   3.781   5.548
    1CHL1    C8   14   4.232   3.771   5.511
    1CHL1    H8   15   4.315   3.700   5.532
    1CHL1   C14   16   4.211   3.772   5.361
    1CHL1   H14   17   4.118   3.830   5.342
    1CHL1   C15   18   4.189   3.634   5.297
    1CHL1  H15A   19   4.267   3.564   5.334
    1CHL1  H15B   20   4.089   3.593   5.323
    1CHL1   C16   21   4.209   3.660   5.148
    1CHL1  H16A   22   4.279   3.585   5.107
    1CHL1  H16B   23   4.113   3.655   5.092
    1CHL1   C17   24   4.270   3.803   5.136
    1CHL1   H17   25   4.185   3.873   5.117
    1CHL1   C13   26   4.320   3.839   5.279
    1CHL1   C18   27   4.457   3.771   5.304
    1CHL1  H18A   28   4.537   3.814   5.240
    1CHL1  H18B   29   4.490   3.780   5.410
    1CHL1  H18C   30   4.450   3.662   5.284
    1CHL1   C12   31   4.322   3.987   5.325
    1CHL1  H12A   32   4.396   4.046   5.267
    1CHL1  H12B   33   4.222   4.031   5.306
    1CHL1   C11   34   4.355   3.997   5.476
    1CHL1  H11A   35   4.461   3.969   5.490
    1CHL1  H11B   36   4.347   4.104   5.507
    1CHL1    C9   37   4.264   3.909   5.567
    1CHL1    H9   38   4.167   3.963   5.566
    1CHL1   C10   39   4.305   3.896   5.717
    1CHL1   C19   40   4.449   3.839   5.728
    1CHL1  H19A   41   4.480   3.823   5.833
    1CHL1  H19B   42   4.459   3.742   5.676
    1CHL1  H19C   43   4.521   3.911   5.683
    1CHL1    C1   44   4.300   4.036   5.785
    1CHL1   H1A   45   4.381   4.099   5.742
    1CHL1   H1B   46   4.203   4.084   5.760
    1CHL1    C2   47   4.315   4.032   5.939
    1CHL1   H2A   48   4.302   4.135   5.980
    1CHL1   H2B   49   4.417   3.997   5.965
    1CHL1   C20   50   4.362   3.810   5.014
    1CHL1   H20   51   4.443   3.735   5.025
    1CHL1   C21   52   4.423   3.951   5.006
    1CHL1  H21A   53   4.344   4.028   5.001
    1CHL1  H21B   54   4.490   3.961   4.918
    1CHL1  H21C   55   4.486   3.969   5.096
    1CHL1   C22   56   4.283   3.779   4.884
    1CHL1  H22A   57   4.230   3.681   4.892
    1CHL1  H22B   58   4.205   3.857   4.875
    1CHL1   C23   59   4.365   3.775   4.753
    1CHL1  H23A   60   4.455   3.839   4.763
    1CHL1  H23B   61   4.402   3.672   4.735
    1CHL1   C24   62   4.281   3.823   4.633
    1CHL1  H24A   63   4.207   3.744   4.608
    1CHL1  H24B   64   4.224   3.913   4.664
    1CHL1   C25   65   4.360   3.860   4.506
    1CHL1   H25   66   4.418   3.771   4.474
    1CHL1   C26   67   4.263   3.900   4.394
    1CHL1  H26A   68   4.319   3.921   4.300
    1CHL1  H26B   69   4.191   3.818   4.374
    1CHL1  H26C   70   4.207   3.991   4.422
    1CHL1   C27   71   4.459   3.976   4.531
    1CHL1  H27A   72   4.505   4.008   4.435
    1CHL1  H27B   73   4.407   4.063   4.576
    1CHL1  H27C   74   4.541   3.944   4.599
    2CHL1    C3   75   3.883   4.702   5.980
    2CHL1    H3   76   3.870   4.592   5.975
    2CHL1    O3   77   3.884   4.743   6.116
    2CHL1   H3'   78   3.953   4.694   6.160
    2CHL1    C4   79   4.014   4.742   5.909
    2CHL1   H4A   80   4.031   4.850   5.927
    2CHL1   H4B   81   4.098   4.688   5.959
    2CHL1    C5   82   4.013   4.716   5.759
    2CHL1    C6   83   4.108   4.644   5.698
    2CHL1    H6   84   4.192   4.604   5.756
    2CHL1    C7   85   4.112   4.618   5.549
    2CHL1   H7A   86   4.213   4.641   5.508
    2CHL1   H7B   87   4.094   4.511   5.530
    2CHL1    C8   88   4.009   4.701   5.468
    2CHL1    H8   89   4.051   4.803   5.453
    2CHL1   C14   90   3.983   4.636   5.332
    2CHL1   H14   91   3.936   4.538   5.354
    2CHL1   C15   92   4.104   4.603   5.244
    2CHL1  H15A   93   4.172   4.691   5.239
    2CHL1  H15B   94   4.161   4.515   5.281
    2CHL1   C16   95   4.041   4.578   5.106
    2CHL1  H16A   96   4.094   4.639   5.030
    2CHL1  H16B   97   4.048   4.471   5.077
    2CHL1   C17   98   3.891   4.620   5.114
    2CHL1   H17   99   3.833   4.528   5.135
    2CHL1   C13  100   3.883   4.708   5.242
    2CHL1   C18  101   3.934   4.851   5.207
    2CHL1  H18A  102   3.950   4.912   5.299
    2CHL1  H18B  103   4.029   4.848   5.151
    2CHL1  H18C  104   3.858   4.904   5.146
    2CHL1   C12  105   3.748   4.712   5.316
    2CHL1  H12A  106   3.673   4.769   5.258
    2CHL1  H12B  107   3.711   4.608   5.328
    2CHL1   C11  108   3.763   4.778   5.455
    2CHL1  H11A  109   3.785   4.885   5.439
    2CHL1  H11B  110   3.665   4.770   5.506
    2CHL1    C9  111   3.875   4.713   5.542
    2CHL1    H9  112   3.842   4.608   5.557
    2CHL1   C10  113   3.890   4.771   5.685
    2CHL1   C19  114   3.906   4.925   5.675
    2CHL1  H19A  115   3.814   4.971   5.633
    2CHL1  H19B  116   3.923   4.971   5.775
    2CHL1  H19C  117   3.992   4.951   5.609
    2CHL1    C1  118   3.760   4.735   5.763
    2CHL1   H1A  119   3.676   4.790   5.717
    2CHL1   H1B  120   3.740   4.627   5.752
    2CHL1    C2  121   3.763   4.769   5.913
    2CHL1   H2A  122   3.669   4.735   5.960
    2CHL1   H2B  123   3.771   4.879   5.925
    2CHL1   C20  124   3.840   4.678   4.981
    2CHL1   H20  125   3.893   4.773   4.963
    2CHL1   C21  126   3.688   4.707   4.986
    2CHL1  H21A  127   3.632   4.617   5.021
    2CHL1  H21B  128   3.651   4.734   4.885
    2CHL1  H21C  129   3.666   4.792   5.054
    2CHL1   C22  130   3.870   4.587   4.859
    2CHL1  H22A  131   3.969   4.538   4.871
    2CHL1  H22B  132   3.795   4.506   4.851
    2CHL1   C23  133   3.878   4.666   4.727
    2CHL1  H23A  134   3.777   4.678   4.683
    2CHL1  H23B  135   3.917   4.768   4.750
    2CHL1   C24  136   3.974   4.600   4.626
    2CHL1  H24A  137   4.073   4.586   4.674
    2CHL1  H24B  138   3.934   4.500   4.599
    2CHL1   C25  139   3.996   4.681   4.496
    2CHL1   H25  140   3.897   4.694   4.447
    2CHL1   C26  141   4.056   4.820   4.522
    2CHL1  H26A  142   4.074   4.872   4.426
    2CHL1  H26B  143   3.988   4.882   4.583
    2CHL1  H26C  144   4.153   4.810   4.575
    2CHL1   C27  145   4.086   4.603   4.399
    2CHL1  H27A  146   4.043   4.503   4.377
    2CHL1  H27B  147   4.097   4.658   4.303
    2CHL1  H27C  148   4.187   4.589   4.443
    3CHL1    C3  149   2.956   3.579   6.000
    3CHL1    H3  150   3.019   3.671   6.008
    3CHL1    O3  151   2.934   3.527   6.130
    3CHL1   H3'  152   3.010   3.471   6.149
    3CHL1    C4  153   2.820   3.616   5.938
    3CHL1   H4A  154   2.755   3.526   5.941
    3CHL1   H4B  155   2.772   3.691   6.003
    3CHL1    C5  156   2.832   3.664   5.795
    3CHL1    C6  157   2.779   3.781   5.756
    3CHL1    H6  158   2.723   3.841   5.828
    3CHL1    C7  159   2.780   3.829   5.613
    3CHL1   H7A  160   2.678   3.863   5.584
    3CHL1   H7B  161   2.849   3.915   5.601
    3CHL1    C8  162   2.818   3.718   5.513
    3CHL1    H8  163   2.729   3.651   5.509
    3CHL1   C14  164   2.844   3.775   5.374
    3CHL1   H14  165   2.934   3.840   5.382
    3CHL1   C15  166   2.735   3.864   5.312
    3CHL1  H15A  167   2.637   3.814   5.323
    3CHL1  H15B  168   2.730   3.965   5.358
    3CHL1   C16  169   2.774   3.869   5.163
    3CHL1  H16A  170   2.681   3.862   5.102
    3CHL1  H16B  171   2.826   3.964   5.139
    3CHL1   C17  172   2.870   3.749   5.135
    3CHL1   H17  173   2.971   3.793   5.119
    3CHL1   C13  174   2.876   3.670   5.268
    3CHL1   C18  175   2.763   3.565   5.265
    3CHL1  H18A  176   2.755   3.516   5.364
    3CHL1  H18B  177   2.664   3.611   5.241
    3CHL1  H18C  178   2.782   3.483   5.192
    3CHL1   C12  179   3.011   3.608   5.312
    3CHL1  H12A  180   3.045   3.530   5.241
    3CHL1  H12B  181   3.088   3.688   5.313
    3CHL1   C11  182   3.001   3.545   5.453
    3CHL1  H11A  183   2.941   3.452   5.442
    3CHL1  H11B  184   3.103   3.513   5.485
    3CHL1    C9  185   2.940   3.638   5.563
    3CHL1    H9  186   3.018   3.715   5.580
    3CHL1   C10  187   2.913   3.571   5.701
    3CHL1   C19  188   2.826   3.445   5.679
    3CHL1  H19A  189   2.797   3.396   5.775
    3CHL1  H19B  190   2.733   3.475   5.627
    3CHL1  H19C  191   2.879   3.368   5.619
    3CHL1    C1  192   3.047   3.529   5.769
    3CHL1   H1A  193   3.095   3.450   5.707
    3CHL1   H1B  194   3.115   3.617   5.770
    3CHL1    C2  195   3.030   3.477   5.913
    3CHL1   H2A  196   3.131   3.455   5.955
    3CHL1   H2B  197   2.973   3.381   5.911
    3CHL1   C20  198   2.832   3.670   5.008
    3CHL1   H20  199   2.734   3.620   5.025
    3CHL1   C21  200   2.939   3.561   4.982
    3CHL1  H21A  201   2.949   3.492   5.068
    3CHL1  H21B  202   3.038   3.609   4.962
    3CHL1  H21C  203   2.912   3.497   4.896
    3CHL1   C22  204   2.809   3.755   4.880
    3CHL1  H22A  205   2.734   3.836   4.898
    3CHL1  H22B  206   2.904   3.805   4.852
    3CHL1   C23  207   2.758   3.667   4.764
    3CHL1  H23A  208   2.841   3.597   4.741
    3CHL1  H23B  209   2.671   3.608   4.798
    3CHL1   C24  210   2.721   3.738   4.633
    3CHL1  H24A  211   2.632   3.802   4.650
    3CHL1  H24B  212   2.803   3.804   4.599
    3CHL1   C25  213   2.689   3.638   4.519
    3CHL1   H25  214   2.599   3.580   4.548
    3CHL1   C26  215   2.660   3.706   4.384
    3CHL1  H26A  216   2.750   3.758   4.347
    3CHL1  H26B  217   2.632   3.629   4.308
    3CHL1  H26C  218   2.576   3.778   4.392
    3CHL1   C27  219   2.805   3.541   4.499
    3CHL1  H27A  220   2.785   3.482   4.406
    3CHL1  H27B  221   2.901   3.595   4.486
    3CHL1  H27C  222   2.814   3.468   4.583
    4CHL1    C3  223   3.159   4.847   5.988
    4CHL1    H3  224   3.051   4.868   5.974
    4CHL1    O3  225   3.186   4.831   6.127
    4CHL1   H3'  226   3.153   4.911   6.169
    4CHL1    C4  227   3.195   4.716   5.915
    4CHL1   H4A  228   3.299   4.690   5.943
    4CHL1   H4B  229   3.131   4.635   5.956
    4CHL1    C5  230   3.183   4.728   5.764
    4CHL1    C6  231   3.105   4.645   5.693
    4CHL1    H6  232   3.049   4.565   5.744
    4CHL1    C7  233   3.092   4.651   5.543
    4CHL1   H7A  234   3.098   4.549   5.499
    4CHL1   H7B  235   2.992   4.693   5.517
    4CHL1    C8  236   3.201   4.737   5.474
    4CHL1    H8  237   3.294   4.677   5.469
    4CHL1   C14  238   3.155   4.773   5.333
    4CHL1   H14  239   3.064   4.835   5.347
    4CHL1   C15  240   3.111   4.660   5.239
    4CHL1  H15A  241   3.185   4.578   5.239
    4CHL1  H15B  242   3.012   4.620   5.268
    4CHL1   C16  243   3.107   4.729   5.101
    4CHL1  H16A  244   3.168   4.670   5.029
    4CHL1  H16B  245   3.003   4.737   5.062
    4CHL1   C17  246   3.169   4.871   5.121
    4CHL1   H17  247   3.083   4.939   5.143
    4CHL1   C13  248   3.251   4.860   5.251
    4CHL1   C18  249   3.382   4.784   5.220
    4CHL1  H18A  250   3.431   4.747   5.313
    4CHL1  H18B  251   3.364   4.696   5.154
    4CHL1  H18C  252   3.453   4.851   5.168
    4CHL1   C12  253   3.279   4.988   5.332
    4CHL1  H12A  254   3.356   5.051   5.282
    4CHL1  H12B  255   3.185   5.048   5.339
    4CHL1   C11  256   3.329   4.954   5.473
    4CHL1  H11A  257   3.426   4.900   5.463
    4CHL1  H11B  258   3.351   5.048   5.529
    4CHL1    C9  259   3.228   4.866   5.551
    4CHL1    H9  260   3.131   4.921   5.550
    4CHL1   C10  261   3.262   4.844   5.702
    4CHL1   C19  262   3.412   4.811   5.712
    4CHL1  H19A  263   3.442   4.788   5.817
    4CHL1  H19B  264   3.438   4.724   5.649
    4CHL1  H19C  265   3.474   4.898   5.681
    4CHL1    C1  266   3.229   4.974   5.781
    4CHL1   H1A  267   3.296   5.055   5.746
    4CHL1   H1B  268   3.124   5.004   5.758
    4CHL1    C2  269   3.242   4.963   5.934
    4CHL1   H2A  270   3.209   5.058   5.981
    4CHL1   H2B  271   3.349   4.947   5.960
    4CHL1   C20  272   3.237   4.926   4.995
    4CHL1   H20  273   3.329   4.867   4.975
    4CHL1   C21  274   3.277   5.074   5.017
    4CHL1  H21A  275   3.366   5.080   5.084
    4CHL1  H21B  276   3.193   5.131   5.062
    4CHL1  H21C  277   3.307   5.123   4.923
    4CHL1   C22  278   3.150   4.912   4.868
    4CHL1  H22A  279   3.123   4.805   4.853
    4CHL1  H22B  280   3.056   4.970   4.879
    4CHL1   C23  281   3.225   4.959   4.742
    4CHL1  H23A  282   3.220   5.070   4.737
    4CHL1  H23B  283   3.331   4.929   4.750
    4CHL1   C24  284   3.170   4.901   4.610
    4CHL1  H24A  285   3.161   4.791   4.621
    4CHL1  H24B  286   3.069   4.943   4.592
    4CHL1   C25  287   3.261   4.929   4.488
    4CHL1   H25  288   3.355   4.871   4.501
    4CHL1   C26  289   3.196   4.885   4.357
    4CHL1  H26A  290   3.185   4.775   4.353
    4CHL1  H26B  291   3.095   4.931   4.347
    4CHL1  H26C  292   3.257   4.918   4.270
    4CHL1   C27  293   3.300   5.077   4.481
    4CHL1  H27A  294   3.210   5.141   4.490
    4CHL1  H27B  295   3.369   5.103   4.564
    4CHL1  H27C  296   3.349   5.100   4.384
    5CHL1    C3  297   3.682   5.468   5.990
    5CHL1    H3  298   3.649   5.363   5.997
    5CHL1    O3  299   3.709   5.516   6.121
    5CHL1   H3'  300   3.795   5.478   6.142
    5CHL1    C4  301   3.810   5.477   5.906
    5CHL1   H4A  302   3.845   5.583   5.906
    5CHL1   H4B  303   3.889   5.417   5.955
    5CHL1    C5  304   3.786   5.432   5.763
    5CHL1    C6  305   3.857   5.332   5.709
    5CHL1    H6  306   3.936   5.283   5.768
    5CHL1    C7  307   3.841   5.285   5.567
    5CHL1   H7A  308   3.941   5.270   5.520
    5CHL1   H7B  309   3.787   5.188   5.565
    5CHL1    C8  310   3.762   5.387   5.481
    5CHL1    H8  311   3.829   5.474   5.463
    5CHL1   C14  312   3.724   5.324   5.348
    5CHL1   H14  313   3.657   5.238   5.371
    5CHL1   C15  314   3.838   5.265   5.263
    5CHL1  H15A  315   3.924   5.336   5.262
    5CHL1  H15B  316   3.872   5.167   5.302
    5CHL1   C16  317   3.777   5.255   5.123
    5CHL1  H16A  318   3.845   5.306   5.051
    5CHL1  H16B  319   3.764   5.149   5.091
    5CHL1   C17  320   3.639   5.328   5.126
    5CHL1   H17  321   3.562   5.250   5.142
    5CHL1   C13  322   3.644   5.414   5.255
    5CHL1   C18  323   3.723   5.543   5.222
    5CHL1  H18A  324   3.816   5.522   5.165
    5CHL1  H18B  325   3.657   5.609   5.162
    5CHL1  H18C  326   3.751   5.600   5.314
    5CHL1   C12  327   3.512   5.446   5.327
    5CHL1  H12A  328   3.447   5.512   5.265
    5CHL1  H12B  329   3.458   5.351   5.344
    5CHL1   C11  330   3.539   5.515   5.463
    5CHL1  H11A  331   3.580   5.616   5.440
    5CHL1  H11B  332   3.442   5.531   5.516
    5CHL1    C9  333   3.636   5.435   5.555
    5CHL1    H9  334   3.581   5.342   5.580
    5CHL1   C10  335   3.670   5.504   5.690
    5CHL1   C19  336   3.714   5.651   5.662
    5CHL1  H19A  337   3.628   5.710   5.623
    5CHL1  H19B  338   3.748   5.702   5.754
    5CHL1  H19C  339   3.796   5.654   5.587
    5CHL1    C1  340   3.544   5.504   5.782
    5CHL1   H1A  341   3.466   5.569   5.736
    5CHL1   H1B  342   3.503   5.401   5.786
    5CHL1    C2  343   3.571   5.552   5.926
    5CHL1   H2A  344   3.478   5.544   5.987
    5CHL1   H2B  345   3.601   5.659   5.925
    5CHL1   C20  346   3.608   5.397   4.991
    5CHL1   H20  347   3.680   5.481   4.978
    5CHL1   C21  348   3.465   5.455   4.990
    5CHL1  H21A  349   3.441   5.494   4.889
    5CHL1  H21B  350   3.456   5.540   5.061
    5CHL1  H21C  351   3.391   5.377   5.016
    5CHL1   C22  352   3.630   5.305   4.868
    5CHL1  H22A  353   3.724   5.248   4.879
    5CHL1  H22B  354   3.547   5.231   4.861
    5CHL1   C23  355   3.643   5.384   4.736
    5CHL1  H23A  356   3.543   5.394   4.689
    5CHL1  H23B  357   3.680   5.486   4.759
    5CHL1   C24  358   3.743   5.320   4.637
    5CHL1  H24A  359   3.765   5.391   4.555
    5CHL1  H24B  360   3.838   5.302   4.691
    5CHL1   C25  361   3.694   5.188   4.575
    5CHL1   H25  362   3.639   5.131   4.653
    5CHL1   C26  363   3.601   5.215   4.456
    5CHL1  H26A  364   3.568   5.119   4.412
    5CHL1  H26B  365   3.512   5.273   4.489
    5CHL1  H26C  366   3.653   5.273   4.378
    5CHL1   C27  367   3.811   5.101   4.528
    5CHL1  H27A  368   3.881   5.082   4.613
    5CHL1  H27B  369   3.775   5.003   4.490
    5CHL1  H27C  370   3.867   5.152   4.447
    6CHL1    C3  371   3.457   1.932   5.996
    6CHL1    H3  372   3.470   2.041   5.982
    6CHL1    O3  373   3.435   1.904   6.133
    6CHL1   H3'  374   3.340   1.893   6.142
    6CHL1    C4  375   3.337   1.884   5.910
    6CHL1   H4A  376   3.319   1.777   5.931
    6CHL1   H4B  377   3.247   1.939   5.945
    6CHL1    C5  378   3.361   1.904   5.762
    6CHL1    C6  379   3.279   1.977   5.684
    6CHL1    H6  380   3.187   2.021   5.726
    6CHL1    C7  381   3.300   1.998   5.536
    6CHL1   H7A  382   3.204   1.983   5.481
    6CHL1   H7B  383   3.332   2.102   5.517
    6CHL1    C8  384   3.407   1.902   5.476
    6CHL1    H8  385   3.360   1.801   5.468
    6CHL1   C14  386   3.448   1.948   5.336
    6CHL1   H14  387   3.492   2.049   5.348
    6CHL1   C15  388   3.337   1.964   5.231
    6CHL1  H15A  389   3.267   1.878   5.238
    6CHL1  H15B  390   3.280   2.058   5.244
    6CHL1   C16  391   3.412   1.959   5.097
    6CHL1  H16A  392   3.365   1.881   5.033
    6CHL1  H16B  393   3.408   2.057   5.043
    6CHL1   C17  394   3.561   1.921   5.128
    6CHL1   H17  395   3.617   2.017   5.134
    6CHL1   C13  396   3.557   1.863   5.271
    6CHL1   C18  397   3.512   1.715   5.260
    6CHL1  H18A  398   3.595   1.653   5.219
    6CHL1  H18B  399   3.483   1.672   5.358
    6CHL1  H18C  400   3.425   1.708   5.191
    6CHL1   C12  401   3.682   1.877   5.360
    6CHL1  H12A  402   3.769   1.820   5.320
    6CHL1  H12B  403   3.711   1.984   5.365
    6CHL1   C11  404   3.654   1.827   5.503
    6CHL1  H11A  405   3.641   1.717   5.498
    6CHL1  H11B  406   3.745   1.847   5.563
    6CHL1    C9  407   3.529   1.896   5.567
    6CHL1    H9  408   3.560   2.002   5.579
    6CHL1   C10  409   3.493   1.844   5.709
    6CHL1   C19  410   3.479   1.690   5.706
    6CHL1  H19A  411   3.445   1.649   5.804
    6CHL1  H19B  412   3.405   1.658   5.628
    6CHL1  H19C  413   3.576   1.641   5.683
    6CHL1    C1  414   3.609   1.884   5.804
    6CHL1   H1A  415   3.699   1.827   5.772
    6CHL1   H1B  416   3.630   1.992   5.789
    6CHL1    C2  417   3.584   1.860   5.953
    6CHL1   H2A  418   3.671   1.897   6.012
    6CHL1   H2B  419   3.574   1.751   5.971
    6CHL1   C20  420   3.623   1.837   5.015
    6CHL1   H20  421   3.574   1.737   5.012
    6CHL1   C21  422   3.773   1.815   5.041
    6CHL1  H21A  423   3.820   1.760   4.957
    6CHL1  H21B  424   3.788   1.751   5.131
    6CHL1  H21C  425   3.826   1.911   5.055
    6CHL1   C22  426   3.598   1.899   4.874
    6CHL1  H22A  427   3.490   1.890   4.850
    6CHL1  H22B  428   3.624   2.007   4.878
    6CHL1   C23  429   3.678   1.832   4.760
    6CHL1  H23A  430   3.781   1.872   4.760
    6CHL1  H23B  431   3.684   1.723   4.780
    6CHL1   C24  432   3.616   1.850   4.620
    6CHL1  H24A  433   3.688   1.812   4.545
    6CHL1  H24B  434   3.525   1.786   4.614
    6CHL1   C25  435   3.576   1.994   4.583
    6CHL1   H25  436   3.498   2.027   4.654
    6CHL1   C26  437   3.694   2.091   4.592
    6CHL1  H26A  438   3.774   2.063   4.521
    6CHL1  H26B  439   3.658   2.194   4.567
    6CHL1  H26C  440   3.737   2.093   4.694
    6CHL1   C27  441   3.515   1.998   4.441
    6CHL1  H27A  442   3.481   2.101   4.417
    6CHL1  H27B  443   3.591   1.968   4.366
    6CHL1  H27C  444   3.428   1.929   4.434
    7CHL1    C3  445   3.316   6.293   5.995
    7CHL1    H3  446   3.235   6.368   5.982
    7CHL1    O3  447   3.353   6.289   6.132
    7CHL1   H3'  448   3.363   6.195   6.151
    7CHL1    C4  449   3.266   6.154   5.952
    7CHL1   H4A  450   3.342   6.078   5.980
    7CHL1   H4B  451   3.175   6.131   6.012
    7CHL1    C5  452   3.238   6.143   5.803
    7CHL1    C6  453   3.120   6.099   5.756
    7CHL1    H6  454   3.043   6.066   5.827
    7CHL1    C7  455   3.089   6.082   5.610
    7CHL1   H7A  456   3.041   5.983   5.592
    7CHL1   H7B  457   3.016   6.160   5.579
    7CHL1    C8  458   3.214   6.093   5.519
    7CHL1    H8  459   3.270   5.997   5.525
    7CHL1   C14  460   3.172   6.116   5.374
    7CHL1   H14  461   3.120   6.215   5.375
    7CHL1   C15  462   3.070   6.019   5.312
    7CHL1  H15A  463   3.099   5.914   5.335
    7CHL1  H15B  464   2.967   6.037   5.349
    7CHL1   C16  465   3.083   6.046   5.161
    7CHL1  H16A  466   3.105   5.951   5.108
    7CHL1  H16B  467   2.989   6.089   5.120
    7CHL1   C17  468   3.202   6.146   5.143
    7CHL1   H17  469   3.159   6.248   5.150
    7CHL1   C13  470   3.285   6.131   5.272
    7CHL1   C18  471   3.368   6.001   5.262
    7CHL1  H18A  472   3.447   6.014   5.185
    7CHL1  H18B  473   3.417   5.976   5.359
    7CHL1  H18C  474   3.305   5.914   5.232
    7CHL1   C12  475   3.371   6.251   5.317
    7CHL1  H12A  476   3.460   6.263   5.252
    7CHL1  H12B  477   3.310   6.344   5.309
    7CHL1   C11  478   3.419   6.236   5.462
    7CHL1  H11A  479   3.492   6.152   5.465
    7CHL1  H11B  480   3.474   6.328   5.491
    7CHL1    C9  481   3.305   6.208   5.564
    7CHL1    H9  482   3.240   6.299   5.561
    7CHL1   C10  483   3.351   6.194   5.712
    7CHL1   C19  484   3.466   6.091   5.719
    7CHL1  H19A  485   3.557   6.135   5.672
    7CHL1  H19B  486   3.494   6.066   5.824
    7CHL1  H19C  487   3.440   5.997   5.666
    7CHL1    C1  488   3.403   6.332   5.762
    7CHL1   H1A  489   3.494   6.360   5.705
    7CHL1   H1B  490   3.325   6.409   5.741
    7CHL1    C2  491   3.437   6.336   5.912
    7CHL1   H2A  492   3.469   6.438   5.941
    7CHL1   H2B  493   3.523   6.267   5.932
    7CHL1   C20  494   3.267   6.137   5.003
    7CHL1   H20  495   3.312   6.036   4.990
    7CHL1   C21  496   3.377   6.243   4.988
    7CHL1  H21A  497   3.338   6.344   5.013
    7CHL1  H21B  498   3.415   6.246   4.883
    7CHL1  H21C  499   3.464   6.220   5.052
    7CHL1   C22  500   3.159   6.156   4.894
    7CHL1  H22A  501   3.079   6.080   4.907
    7CHL1  H22B  502   3.113   6.256   4.911
    7CHL1   C23  503   3.202   6.150   4.746
    7CHL1  H23A  504   3.273   6.232   4.723
    7CHL1  H23B  505   3.252   6.053   4.726
    7CHL1   C24  506   3.078   6.166   4.654
    7CHL1  H24A  507   3.011   6.078   4.670
    7CHL1  H24B  508   3.023   6.257   4.685
    7CHL1   C25  509   3.108   6.179   4.504
    7CHL1   H25  510   3.166   6.273   4.488
    7CHL1   C26  511   3.192   6.063   4.451
    7CHL1  H26A  512   3.200   6.067   4.340
    7CHL1  H26B  513   3.295   6.065   4.494
    7CHL1  H26C  514   3.144   5.967   4.480
    7CHL1   C27  515   2.976   6.191   4.425
    7CHL1  H27A  516   2.917   6.278   4.461
    7CHL1  H27B  517   2.997   6.204   4.316
    7CHL1  H27C  518   2.915   6.099   4.438
    8CHL1    C3  519   5.080   1.540   6.022
    8CHL1    H3  520   5.123   1.437   6.019
    8CHL1    O3  521   5.043   1.570   6.156
    8CHL1   H3'  522   5.126   1.596   6.197
    8CHL1    C4  523   5.186   1.641   5.977
    8CHL1   H4A  524   5.145   1.744   5.990
    8CHL1   H4B  525   5.274   1.633   6.044
    8CHL1    C5  526   5.224   1.621   5.832
    8CHL1    C6  527   5.352   1.603   5.796
    8CHL1    H6  528   5.432   1.606   5.872
    8CHL1    C7  529   5.397   1.590   5.654
    8CHL1   H7A  530   5.488   1.651   5.636
    8CHL1   H7B  531   5.423   1.484   5.633
    8CHL1    C8  532   5.287   1.635   5.554
    8CHL1    H8  533   5.281   1.746   5.555
    8CHL1   C14  534   5.325   1.589   5.416
    8CHL1   H14  535   5.320   1.478   5.423
    8CHL1   C15  536   5.467   1.625   5.366
    8CHL1  H15A  537   5.488   1.732   5.385
    8CHL1  H15B  538   5.545   1.563   5.415
    8CHL1   C16  539   5.459   1.599   5.216
    8CHL1  H16A  540   5.479   1.693   5.161
    8CHL1  H16B  541   5.532   1.523   5.181
    8CHL1   C17  542   5.313   1.553   5.189
    8CHL1   H17  543   5.310   1.443   5.208
    8CHL1   C13  544   5.228   1.616   5.302
    8CHL1   C18  545   5.212   1.768   5.280
    8CHL1  H18A  546   5.305   1.815   5.242
    8CHL1  H18B  547   5.130   1.786   5.207
    8CHL1  H18C  548   5.184   1.819   5.375
    8CHL1   C12  549   5.095   1.547   5.339
    8CHL1  H12A  550   5.017   1.569   5.264
    8CHL1  H12B  551   5.111   1.437   5.341
    8CHL1   C11  552   5.045   1.593   5.478
    8CHL1  H11A  553   5.018   1.700   5.468
    8CHL1  H11B  554   4.953   1.537   5.503
    8CHL1    C9  555   5.151   1.574   5.591
    8CHL1    H9  556   5.169   1.465   5.596
    8CHL1   C10  557   5.106   1.618   5.733
    8CHL1   C19  558   5.048   1.760   5.723
    8CHL1  H19A  559   5.022   1.803   5.822
    8CHL1  H19B  560   5.123   1.827   5.675
    8CHL1  H19C  561   4.956   1.762   5.661
    8CHL1    C1  562   4.996   1.520   5.785
    8CHL1   H1A  563   4.906   1.530   5.721
    8CHL1   H1B  564   5.033   1.416   5.775
    8CHL1    C2  565   4.956   1.545   5.932
    8CHL1   H2A  566   4.882   1.469   5.964
    8CHL1   H2B  567   4.909   1.645   5.941
    8CHL1   C20  568   5.278   1.572   5.043
    8CHL1   H20  569   5.306   1.675   5.012
    8CHL1   C21  570   5.129   1.551   5.018
    8CHL1  H21A  571   5.098   1.455   5.066
    8CHL1  H21B  572   5.104   1.548   4.910
    8CHL1  H21C  573   5.069   1.633   5.063
    8CHL1   C22  574   5.363   1.472   4.959
    8CHL1  H22A  575   5.470   1.490   4.979
    8CHL1  H22B  576   5.339   1.368   4.988
    8CHL1   C23  577   5.341   1.492   4.811
    8CHL1  H23A  578   5.249   1.437   4.779
    8CHL1  H23B  579   5.323   1.600   4.795
    8CHL1   C24  580   5.460   1.453   4.723
    8CHL1  H24A  581   5.556   1.475   4.774
    8CHL1  H24B  582   5.457   1.344   4.701
    8CHL1   C25  583   5.454   1.534   4.593
    8CHL1   H25  584   5.467   1.641   4.620
    8CHL1   C26  585   5.565   1.496   4.495
    8CHL1  H26A  586   5.566   1.566   4.409
    8CHL1  H26B  587   5.664   1.499   4.545
    8CHL1  H26C  588   5.547   1.394   4.456
    8CHL1   C27  589   5.316   1.518   4.529
    8CHL1  H27A  590   5.300   1.411   4.503
    8CHL1  H27B  591   5.233   1.552   4.593
    8CHL1  H27C  592   5.312   1.579   4.436
    9CHL1    C3  593   3.811   1.044   5.992
    9CHL1    H3  594   3.895   0.972   5.998
    9CHL1    O3  595   3.777   1.083   6.125
    9CHL1   H3'  596   3.787   1.002   6.175
    9CHL1    C4  597   3.855   1.166   5.910
    9CHL1   H4A  598   3.774   1.242   5.910
    9CHL1   H4B  599   3.942   1.214   5.961
    9CHL1    C5  600   3.889   1.121   5.770
    9CHL1    C6  601   4.012   1.135   5.719
    9CHL1    H6  602   4.091   1.184   5.779
    9CHL1    C7  603   4.048   1.097   5.578
    9CHL1   H7A  604   4.120   1.170   5.534
    9CHL1   H7B  605   4.098   0.998   5.576
    9CHL1    C8  606   3.920   1.091   5.490
    9CHL1    H8  607   3.876   1.194   5.486
    9CHL1   C14  608   3.954   1.049   5.348
    9CHL1   H14  609   4.002   0.949   5.355
    9CHL1   C15  610   4.052   1.138   5.272
    9CHL1  H15A  611   4.031   1.245   5.296
    9CHL1  H15B  612   4.157   1.113   5.298
    9CHL1   C16  613   4.022   1.113   5.124
    9CHL1  H16A  614   3.991   1.209   5.077
    9CHL1  H16B  615   4.112   1.075   5.071
    9CHL1   C17  616   3.904   1.012   5.121
    9CHL1   H17  617   3.950   0.911   5.124
    9CHL1   C13  618   3.833   1.032   5.257
    9CHL1   C18  619   3.752   1.165   5.249
    9CHL1  H18A  620   3.712   1.194   5.349
    9CHL1  H18B  621   3.814   1.249   5.212
    9CHL1  H18C  622   3.665   1.153   5.181
    9CHL1   C12  623   3.751   0.916   5.316
    9CHL1  H12A  624   3.662   0.894   5.254
    9CHL1  H12B  625   3.815   0.825   5.318
    9CHL1   C11  626   3.705   0.948   5.460
    9CHL1  H11A  627   3.626   1.026   5.450
    9CHL1  H11B  628   3.657   0.858   5.504
    9CHL1    C9  629   3.819   0.996   5.555
    9CHL1    H9  630   3.877   0.904   5.577
    9CHL1   C10  631   3.773   1.052   5.693
    9CHL1   C19  632   3.660   1.157   5.670
    9CHL1  H19A  633   3.569   1.108   5.627
    9CHL1  H19B  634   3.627   1.205   5.765
    9CHL1  H19C  635   3.693   1.237   5.601
    9CHL1    C1  636   3.721   0.935   5.782
    9CHL1   H1A  637   3.631   0.891   5.735
    9CHL1   H1B  638   3.799   0.856   5.784
    9CHL1    C2  639   3.690   0.975   5.928
    9CHL1   H2A  640   3.663   0.884   5.985
    9CHL1   H2B  641   3.603   1.044   5.929
    9CHL1   C20  642   3.819   1.021   4.993
    9CHL1   H20  643   3.751   1.109   4.999
    9CHL1   C21  644   3.733   0.894   4.978
    9CHL1  H21A  645   3.795   0.804   4.995
    9CHL1  H21B  646   3.690   0.889   4.875
    9CHL1  H21C  647   3.648   0.894   5.050
    9CHL1   C22  648   3.902   1.044   4.863
    9CHL1  H22A  649   3.832   1.046   4.777
    9CHL1  H22B  650   3.950   1.144   4.868
    9CHL1   C23  651   4.009   0.938   4.836
    9CHL1  H23A  652   4.079   0.933   4.922
    9CHL1  H23B  653   3.963   0.838   4.826
    9CHL1   C24  654   4.090   0.970   4.710
    9CHL1  H24A  655   4.034   0.939   4.619
    9CHL1  H24B  656   4.106   1.080   4.705
    9CHL1   C25  657   4.230   0.906   4.712
    9CHL1   H25  658   4.283   0.951   4.798
    9CHL1   C26  659   4.225   0.754   4.737
    9CHL1  H26A  660   4.176   0.730   4.833
    9CHL1  H26B  661   4.168   0.706   4.654
    9CHL1  H26C  662   4.328   0.712   4.738
    9CHL1   C27  663   4.307   0.939   4.584
    9CHL1  H27A  664   4.319   1.049   4.574
    9CHL1  H27B  665   4.408   0.894   4.586
    9CHL1  H27C  666   4.253   0.901   4.495
   10CHL1    C3  667   6.720   3.455   5.978
   10CHL1    H3  668   6.825   3.483   5.955
   10CHL1    O3  669   6.708   3.431   6.118
   10CHL1   H3'  670   6.721   3.337   6.128
   10CHL1    C4  671   6.626   3.569   5.942
   10CHL1   H4A  672   6.523   3.541   5.972
   10CHL1   H4B  673   6.654   3.659   6.002
   10CHL1    C5  674   6.628   3.599   5.794
   10CHL1    C6  675   6.662   3.719   5.749
   10CHL1    H6  676   6.692   3.794   5.824
   10CHL1    C7  677   6.658   3.763   5.606
   10CHL1   H7A  678   6.607   3.861   5.596
   10CHL1   H7B  679   6.761   3.775   5.567
   10CHL1    C8  680   6.583   3.661   5.517
   10CHL1    H8  681   6.474   3.675   5.533
   10CHL1   C14  682   6.617   3.690   5.372
   10CHL1   H14  683   6.727   3.671   5.364
   10CHL1   C15  684   6.597   3.832   5.316
   10CHL1  H15A  685   6.496   3.869   5.344
   10CHL1  H15B  686   6.673   3.903   5.355
   10CHL1   C16  687   6.608   3.812   5.164
   10CHL1  H16A  688   6.519   3.856   5.114
   10CHL1  H16B  689   6.700   3.860   5.122
   10CHL1   C17  690   6.613   3.658   5.140
   10CHL1   H17  691   6.720   3.631   5.138
   10CHL1   C13  692   6.554   3.597   5.270
   10CHL1   C18  693   6.400   3.615   5.268
   10CHL1  H18A  694   6.370   3.717   5.238
   10CHL1  H18B  695   6.355   3.544   5.195
   10CHL1  H18C  696   6.356   3.594   5.367
   10CHL1   C12  697   6.594   3.452   5.306
   10CHL1  H12A  698   6.540   3.381   5.240
   10CHL1  H12B  699   6.703   3.439   5.289
   10CHL1   C11  700   6.560   3.416   5.451
   10CHL1  H11A  701   6.449   3.415   5.460
   10CHL1  H11B  702   6.596   3.313   5.473
   10CHL1    C9  703   6.621   3.516   5.553
   10CHL1    H9  704   6.731   3.511   5.537
   10CHL1   C10  705   6.597   3.480   5.702
   10CHL1   C19  706   6.448   3.443   5.719
   10CHL1  H19A  707   6.383   3.520   5.673
   10CHL1  H19B  708   6.431   3.345   5.669
   10CHL1  H19C  709   6.418   3.429   5.825
   10CHL1    C1  710   6.686   3.360   5.746
   10CHL1   H1A  711   6.653   3.270   5.690
   10CHL1   H1B  712   6.791   3.381   5.715
   10CHL1    C2  713   6.684   3.329   5.897
   10CHL1   H2A  714   6.755   3.247   5.919
   10CHL1   H2B  715   6.582   3.295   5.926
   10CHL1   C20  716   6.552   3.613   5.007
   10CHL1   H20  717   6.443   3.634   5.008
   10CHL1   C21  718   6.575   3.461   4.992
   10CHL1  H21A  719   6.585   3.434   4.885
   10CHL1  H21B  720   6.489   3.404   5.034
   10CHL1  H21C  721   6.669   3.430   5.041
   10CHL1   C22  722   6.608   3.684   4.881
   10CHL1  H22A  723   6.623   3.792   4.899
   10CHL1  H22B  724   6.707   3.639   4.857
   10CHL1   C23  725   6.512   3.668   4.761
   10CHL1  H23A  726   6.466   3.566   4.762
   10CHL1  H23B  727   6.429   3.741   4.773
   10CHL1   C24  728   6.579   3.686   4.624
   10CHL1  H24A  729   6.617   3.790   4.617
   10CHL1  H24B  730   6.666   3.618   4.617
   10CHL1   C25  731   6.487   3.659   4.502
   10CHL1   H25  732   6.463   3.551   4.501
   10CHL1   C26  733   6.353   3.734   4.510
   10CHL1  H26A  734   6.302   3.733   4.412
   10CHL1  H26B  735   6.286   3.686   4.585
   10CHL1  H26C  736   6.368   3.840   4.542
   10CHL1   C27  737   6.560   3.692   4.371
   10CHL1  H27A  738   6.651   3.629   4.361
   10CHL1  H27B  739   6.495   3.671   4.284
   10CHL1  H27C  740   6.591   3.799   4.369
   11CHL1    C3  741   6.974   2.726   6.020
   11CHL1    H3  742   6.924   2.630   5.994
   11CHL1    O3  743   7.024   2.717   6.153
   11CHL1   H3'  744   7.102   2.773   6.155
   11CHL1    C4  745   7.091   2.751   5.923
   11CHL1   H4A  746   7.149   2.839   5.958
   11CHL1   H4B  747   7.159   2.663   5.928
   11CHL1    C5  748   7.045   2.777   5.780
   11CHL1    C6  749   7.092   2.706   5.676
   11CHL1    H6  750   7.167   2.628   5.693
   11CHL1    C7  751   7.054   2.731   5.533
   11CHL1   H7A  752   7.144   2.732   5.468
   11CHL1   H7B  753   6.989   2.647   5.498
   11CHL1    C8  754   6.976   2.864   5.512
   11CHL1    H8  755   7.049   2.947   5.515
   11CHL1   C14  756   6.907   2.863   5.376
   11CHL1   H14  757   6.836   2.778   5.379
   11CHL1   C15  758   6.994   2.838   5.252
   11CHL1  H15A  759   7.086   2.900   5.256
   11CHL1  H15B  760   7.023   2.731   5.243
   11CHL1   C16  761   6.905   2.883   5.136
   11CHL1  H16A  762   6.960   2.956   5.073
   11CHL1  H16B  763   6.873   2.798   5.072
   11CHL1   C17  764   6.780   2.952   5.199
   11CHL1   H17  765   6.703   2.872   5.209
   11CHL1   C13  766   6.822   2.986   5.344
   11CHL1   C18  767   6.909   3.115   5.341
   11CHL1  H18A  768   6.962   3.131   5.437
   11CHL1  H18B  769   6.985   3.111   5.260
   11CHL1  H18C  770   6.844   3.203   5.323
   11CHL1   C12  771   6.712   2.994   5.453
   11CHL1  H12A  772   6.646   3.082   5.440
   11CHL1  H12B  773   6.649   2.903   5.446
   11CHL1   C11  774   6.773   3.000   5.594
   11CHL1  H11A  775   6.825   3.098   5.604
   11CHL1  H11B  776   6.690   2.998   5.667
   11CHL1    C9  777   6.872   2.883   5.623
   11CHL1    H9  778   6.809   2.792   5.619
   11CHL1   C10  779   6.935   2.885   5.765
   11CHL1   C19  780   7.001   3.023   5.790
   11CHL1  H19A  781   6.924   3.104   5.791
   11CHL1  H19B  782   7.054   3.027   5.888
   11CHL1  H19C  783   7.074   3.046   5.710
   11CHL1    C1  784   6.822   2.860   5.870
   11CHL1   H1A  785   6.750   2.945   5.869
   11CHL1   H1B  786   6.766   2.769   5.840
   11CHL1    C2  787   6.872   2.840   6.014
   11CHL1   H2A  788   6.786   2.816   6.080
   11CHL1   H2B  789   6.920   2.933   6.051
   11CHL1   C20  790   6.721   3.061   5.109
   11CHL1   H20  791   6.794   3.144   5.099
   11CHL1   C21  792   6.592   3.116   5.173
   11CHL1  H21A  793   6.541   3.186   5.104
   11CHL1  H21B  794   6.615   3.173   5.265
   11CHL1  H21C  795   6.522   3.033   5.198
   11CHL1   C22  796   6.692   3.009   4.966
   11CHL1  H22A  797   6.787   2.976   4.919
   11CHL1  H22B  798   6.625   2.920   4.972
   11CHL1   C23  799   6.627   3.112   4.871
   11CHL1  H23A  800   6.520   3.125   4.898
   11CHL1  H23B  801   6.679   3.210   4.884
   11CHL1   C24  802   6.636   3.070   4.724
   11CHL1  H24A  803   6.741   3.079   4.689
   11CHL1  H24B  804   6.606   2.964   4.716
   11CHL1   C25  805   6.545   3.152   4.630
   11CHL1   H25  806   6.440   3.137   4.664
   11CHL1   C26  807   6.572   3.303   4.635
   11CHL1  H26A  808   6.680   3.325   4.642
   11CHL1  H26B  809   6.530   3.352   4.545
   11CHL1  H26C  810   6.519   3.345   4.723
   11CHL1   C27  811   6.553   3.101   4.485
   11CHL1  H27A  812   6.652   3.124   4.442
   11CHL1  H27B  813   6.535   2.992   4.481
   11CHL1  H27C  814   6.475   3.151   4.424
   12CHL1    C3  815   1.562   0.840   5.995
   12CHL1    H3  816   1.542   0.946   5.971
   12CHL1    O3  817   1.535   0.815   6.132
   12CHL1   H3'  818   1.546   0.720   6.138
   12CHL1    C4  819   1.472   0.749   5.909
   12CHL1   H4A  820   1.485   0.644   5.941
   12CHL1   H4B  821   1.366   0.776   5.930
   12CHL1    C5  822   1.503   0.759   5.761
   12CHL1    C6  823   1.408   0.786   5.669
   12CHL1    H6  824   1.303   0.798   5.702
   12CHL1    C7  825   1.432   0.794   5.521
   12CHL1   H7A  826   1.356   0.736   5.465
   12CHL1   H7B  827   1.423   0.900   5.489
   12CHL1    C8  828   1.573   0.744   5.481
   12CHL1    H8  829   1.570   0.633   5.483
   12CHL1   C14  830   1.609   0.790   5.340
   12CHL1   H14  831   1.608   0.901   5.342
   12CHL1   C15  832   1.516   0.752   5.223
   12CHL1  H15A  833   1.486   0.645   5.233
   12CHL1  H15B  834   1.425   0.815   5.220
   12CHL1   C16  835   1.605   0.771   5.099
   12CHL1  H16A  836   1.602   0.678   5.037
   12CHL1  H16B  837   1.570   0.856   5.037
   12CHL1   C17  838   1.750   0.797   5.150
   12CHL1   H17  839   1.764   0.907   5.153
   12CHL1   C13  840   1.749   0.750   5.296
   12CHL1   C18  841   1.765   0.595   5.298
   12CHL1  H18A  842   1.745   0.553   5.399
   12CHL1  H18B  843   1.694   0.547   5.227
   12CHL1  H18C  844   1.868   0.566   5.270
   12CHL1   C12  845   1.847   0.822   5.388
   12CHL1  H12A  846   1.952   0.801   5.359
   12CHL1  H12B  847   1.832   0.932   5.380
   12CHL1   C11  848   1.825   0.779   5.533
   12CHL1  H11A  849   1.857   0.673   5.543
   12CHL1  H11B  850   1.891   0.842   5.597
   12CHL1    C9  851   1.678   0.796   5.580
   12CHL1    H9  852   1.662   0.906   5.582
   12CHL1   C10  853   1.652   0.746   5.725
   12CHL1   C19  854   1.690   0.595   5.736
   12CHL1  H19A  855   1.665   0.555   5.837
   12CHL1  H19B  856   1.635   0.534   5.661
   12CHL1  H19C  857   1.799   0.580   5.721
   12CHL1    C1  858   1.741   0.829   5.821
   12CHL1   H1A  859   1.848   0.803   5.805
   12CHL1   H1B  860   1.729   0.937   5.797
   12CHL1    C2  861   1.709   0.808   5.970
   12CHL1   H2A  862   1.775   0.873   6.032
   12CHL1   H2B  863   1.731   0.702   5.997
   12CHL1   C20  864   1.858   0.739   5.057
   12CHL1   H20  865   1.839   0.631   5.044
   12CHL1   C21  866   2.001   0.761   5.110
   12CHL1  H21A  867   2.016   0.866   5.142
   12CHL1  H21B  868   2.076   0.739   5.031
   12CHL1  H21C  869   2.024   0.693   5.195
   12CHL1   C22  870   1.849   0.805   4.919
   12CHL1  H22A  871   1.744   0.828   4.891
   12CHL1  H22B  872   1.901   0.903   4.927
   12CHL1   C23  873   1.912   0.721   4.809
   12CHL1  H23A  874   1.957   0.791   4.736
   12CHL1  H23B  875   1.996   0.658   4.847
   12CHL1   C24  876   1.811   0.634   4.734
   12CHL1  H24A  877   1.798   0.539   4.790
   12CHL1  H24B  878   1.712   0.685   4.732
   12CHL1   C25  879   1.851   0.605   4.588
   12CHL1   H25  880   1.806   0.505   4.567
   12CHL1   C26  881   1.787   0.702   4.489
   12CHL1  H26A  882   1.676   0.699   4.496
   12CHL1  H26B  883   1.822   0.806   4.508
   12CHL1  H26C  884   1.816   0.675   4.385
   12CHL1   C27  885   2.003   0.597   4.565
   12CHL1  H27A  886   2.023   0.562   4.461
   12CHL1  H27B  887   2.051   0.697   4.575
   12CHL1  H27C  888   2.050   0.526   4.636
   13CHL1    C3  889   7.572   3.304   6.032
   13CHL1    H3  890   7.580   3.195   6.012
   13CHL1    O3  891   7.592   3.329   6.170
   13CHL1   H3'  892   7.686   3.313   6.183
   13CHL1    C4  893   7.681   3.378   5.952
   13CHL1   H4A  894   7.677   3.486   5.979
   13CHL1   H4B  895   7.780   3.341   5.985
   13CHL1    C5  896   7.662   3.362   5.803
   13CHL1    C6  897   7.759   3.308   5.727
   13CHL1    H6  898   7.855   3.279   5.772
   13CHL1    C7  899   7.750   3.292   5.579
   13CHL1   H7A  900   7.844   3.325   5.531
   13CHL1   H7B  901   7.737   3.184   5.555
   13CHL1    C8  902   7.632   3.371   5.517
   13CHL1    H8  903   7.661   3.478   5.512
   13CHL1   C14  904   7.605   3.318   5.377
   13CHL1   H14  905   7.572   3.213   5.392
   13CHL1   C15  906   7.724   3.309   5.281
   13CHL1  H15A  907   7.783   3.403   5.285
   13CHL1  H15B  908   7.790   3.223   5.307
   13CHL1   C16  909   7.657   3.292   5.144
   13CHL1  H16A  910   7.692   3.372   5.075
   13CHL1  H16B  911   7.678   3.194   5.097
   13CHL1   C17  912   7.503   3.308   5.169
   13CHL1   H17  913   7.465   3.206   5.193
   13CHL1   C13  914   7.492   3.386   5.301
   13CHL1   C18  915   7.524   3.535   5.274
   13CHL1  H18A  916   7.616   3.547   5.214
   13CHL1  H18B  917   7.441   3.584   5.219
   13CHL1  H18C  918   7.538   3.591   5.369
   13CHL1   C12  919   7.363   3.367   5.384
   13CHL1  H12A  920   7.277   3.421   5.337
   13CHL1  H12B  921   7.338   3.259   5.386
   13CHL1   C11  922   7.380   3.418   5.528
   13CHL1  H11A  923   7.391   3.529   5.522
   13CHL1  H11B  924   7.288   3.395   5.585
   13CHL1    C9  925   7.504   3.357   5.601
   13CHL1    H9  926   7.485   3.247   5.604
   13CHL1   C10  927   7.523   3.402   5.748
   13CHL1   C19  928   7.510   3.556   5.754
   13CHL1  H19A  929   7.407   3.588   5.728
   13CHL1  H19B  930   7.532   3.595   5.856
   13CHL1  H19C  931   7.581   3.604   5.683
   13CHL1    C1  932   7.413   3.335   5.837
   13CHL1   H1A  933   7.314   3.375   5.807
   13CHL1   H1B  934   7.413   3.226   5.815
   13CHL1    C2  935   7.433   3.353   5.988
   13CHL1   H2A  936   7.355   3.296   6.043
   13CHL1   H2B  937   7.422   3.460   6.014
   13CHL1   C20  938   7.431   3.354   5.043
   13CHL1   H20  939   7.480   3.446   5.004
   13CHL1   C21  940   7.282   3.386   5.069
   13CHL1  H21A  941   7.232   3.299   5.117
   13CHL1  H21B  942   7.231   3.407   4.972
   13CHL1  H21C  943   7.271   3.476   5.133
   13CHL1   C22  944   7.440   3.243   4.936
   13CHL1  H22A  945   7.471   3.147   4.981
   13CHL1  H22B  946   7.336   3.227   4.899
   13CHL1   C23  947   7.533   3.275   4.818
   13CHL1  H23A  948   7.518   3.380   4.785
   13CHL1  H23B  949   7.638   3.266   4.851
   13CHL1   C24  950   7.508   3.179   4.700
   13CHL1  H24A  951   7.588   3.193   4.624
   13CHL1  H24B  952   7.516   3.075   4.737
   13CHL1   C25  953   7.371   3.199   4.632
   13CHL1   H25  954   7.291   3.202   4.710
   13CHL1   C26  955   7.364   3.333   4.557
   13CHL1  H26A  956   7.271   3.339   4.497
   13CHL1  H26B  957   7.364   3.418   4.629
   13CHL1  H26C  958   7.451   3.345   4.490
   13CHL1   C27  959   7.335   3.077   4.545
   13CHL1  H27A  960   7.243   3.097   4.486
   13CHL1  H27B  961   7.418   3.052   4.475
   13CHL1  H27C  962   7.318   2.988   4.609
   14CHL1    C3  963   1.042   0.357   6.008
   14CHL1    H3  964   0.949   0.298   6.019
   14CHL1    O3  965   1.100   0.380   6.135
   14CHL1   H3'  966   1.137   0.295   6.160
   14CHL1    C4  967   1.144   0.279   5.923
   14CHL1   H4A  968   1.241   0.333   5.923
   14CHL1   H4B  969   1.163   0.181   5.972
   14CHL1    C5  970   1.095   0.261   5.781
   14CHL1    C6  971   1.079   0.139   5.728
   14CHL1    H6  972   1.105   0.050   5.787
   14CHL1    C7  973   1.037   0.118   5.586
   14CHL1   H7A  974   1.094   0.033   5.542
   14CHL1   H7B  975   0.930   0.092   5.582
   14CHL1    C8  976   1.062   0.244   5.500
   14CHL1    H8  977   1.171   0.261   5.491
   14CHL1   C14  978   1.003   0.223   5.362
   14CHL1   H14  979   0.895   0.209   5.384
   14CHL1   C15  980   1.047   0.099   5.285
   14CHL1  H15A  981   1.158   0.103   5.280
   14CHL1  H15B  982   1.012   0.004   5.328
   14CHL1   C16  983   0.997   0.120   5.143
   14CHL1  H16A  984   1.081   0.100   5.074
   14CHL1  H16B  985   0.912   0.053   5.119
   14CHL1   C17  986   0.952   0.269   5.135
   14CHL1   H17  987   0.842   0.269   5.146
   14CHL1   C13  988   1.009   0.338   5.264
   14CHL1   C18  989   1.156   0.379   5.238
   14CHL1  H18A  990   1.207   0.407   5.333
   14CHL1  H18B  991   1.213   0.297   5.190
   14CHL1  H18C  992   1.159   0.468   5.171
   14CHL1   C12  993   0.927   0.452   5.329
   14CHL1  H12A  994   0.930   0.544   5.266
   14CHL1  H12B  995   0.821   0.420   5.338
   14CHL1   C11  996   0.981   0.487   5.471
   14CHL1  H11A  997   1.080   0.536   5.456
   14CHL1  H11B  998   0.914   0.562   5.517
   14CHL1    C9  999   0.995   0.365   5.567
   14CHL1    H9 1000   0.891   0.333   5.587
   14CHL1   C10 1001   1.059   0.392   5.707
   14CHL1   C19 1002   1.189   0.475   5.685
   14CHL1  H19A 1003   1.164   0.575   5.645
   14CHL1  H19B 1004   1.244   0.491   5.780
   14CHL1  H19C 1005   1.257   0.424   5.614
   14CHL1    C1 1006   0.959   0.471   5.796
   14CHL1   H1A 1007   0.939   0.570   5.750
   14CHL1   H1B 1008   0.862   0.416   5.799
   14CHL1    C2 1009   1.007   0.491   5.942
   14CHL1   H2A 1010   0.927   0.542   6.000
   14CHL1   H2B 1011   1.096   0.558   5.941
   14CHL1   C20 1012   0.984   0.327   4.997
   14CHL1   H20 1013   1.093   0.346   4.989
   14CHL1   C21 1014   0.907   0.459   4.984
   14CHL1  H21A 1015   0.936   0.533   5.061
   14CHL1  H21B 1016   0.798   0.437   4.994
   14CHL1  H21C 1017   0.922   0.507   4.884
   14CHL1   C22 1018   0.946   0.233   4.879
   14CHL1  H22A 1019   0.976   0.128   4.895
   14CHL1  H22B 1020   0.835   0.233   4.871
   14CHL1   C23 1021   1.009   0.276   4.745
   14CHL1  H23A 1022   1.008   0.387   4.741
   14CHL1  H23B 1023   1.115   0.243   4.741
   14CHL1   C24 1024   0.931   0.221   4.625
   14CHL1  H24A 1025   0.941   0.111   4.621
   14CHL1  H24B 1026   0.824   0.244   4.642
   14CHL1   C25 1027   0.971   0.281   4.488
   14CHL1   H25 1028   1.070   0.240   4.460
   14CHL1   C26 1029   0.869   0.240   4.380
   14CHL1  H26A 1030   0.901   0.276   4.280
   14CHL1  H26B 1031   0.858   0.129   4.377
   14CHL1  H26C 1032   0.769   0.283   4.402
   14CHL1   C27 1033   0.981   0.434   4.488
   14CHL1  H27A 1034   0.999   0.472   4.385
   14CHL1  H27B 1035   0.887   0.478   4.527
   14CHL1  H27C 1036   1.066   0.468   4.552
   15CHL1    C3 1037   0.015   6.762   6.025
   15CHL1    H3 1038   0.123   6.784   6.036
   15CHL1    O3 1039  -0.040   6.730   6.152
   15CHL1   H3' 1040  -0.002   6.644   6.173
   15CHL1    C4 1041  -0.056   6.886   5.969
   15CHL1   H4A 1042  -0.165   6.869   5.969
   15CHL1   H4B 1043  -0.037   6.971   6.038
   15CHL1    C5 1044  -0.009   6.918   5.828
   15CHL1    C6 1045   0.043   7.037   5.796
   15CHL1    H6 1046   0.049   7.117   5.872
   15CHL1    C7 1047   0.087   7.072   5.658
   15CHL1   H7A 1048   0.053   7.175   5.632
   15CHL1   H7B 1049   0.198   7.070   5.656
   15CHL1    C8 1050   0.039   6.976   5.547
   15CHL1    H8 1051  -0.069   6.997   5.528
   15CHL1   C14 1052   0.121   6.999   5.421
   15CHL1   H14 1053   0.225   6.969   5.448
   15CHL1   C15 1054   0.134   7.143   5.369
   15CHL1  H15A 1055   0.035   7.192   5.368
   15CHL1  H15B 1056   0.204   7.204   5.430
   15CHL1   C16 1057   0.185   7.123   5.225
   15CHL1  H16A 1058   0.116   7.175   5.156
   15CHL1  H16B 1059   0.288   7.164   5.211
   15CHL1   C17 1060   0.182   6.970   5.197
   15CHL1   H17 1061   0.281   6.931   5.230
   15CHL1   C13 1062   0.083   6.912   5.301
   15CHL1   C18 1063  -0.062   6.942   5.256
   15CHL1  H18A 1064  -0.075   7.049   5.227
   15CHL1  H18B 1065  -0.090   6.879   5.169
   15CHL1  H18C 1066  -0.135   6.920   5.337
   15CHL1   C12 1067   0.102   6.765   5.344
   15CHL1  H12A 1068   0.068   6.696   5.264
   15CHL1  H12B 1069   0.210   6.747   5.362
   15CHL1   C11 1070   0.025   6.732   5.475
   15CHL1  H11A 1071  -0.084   6.737   5.450
   15CHL1  H11B 1072   0.049   6.629   5.506
   15CHL1    C9 1073   0.055   6.831   5.592
   15CHL1    H9 1074   0.164   6.820   5.613
   15CHL1   C10 1075  -0.017   6.801   5.726
   15CHL1   C19 1076  -0.167   6.779   5.697
   15CHL1  H19A 1077  -0.209   6.866   5.642
   15CHL1  H19B 1078  -0.183   6.688   5.635
   15CHL1  H19C 1079  -0.227   6.765   5.790
   15CHL1    C1 1080   0.046   6.674   5.790
   15CHL1   H1A 1081   0.024   6.588   5.724
   15CHL1   H1B 1082   0.156   6.688   5.794
   15CHL1    C2 1083  -0.004   6.642   5.932
   15CHL1   H2A 1084   0.052   6.554   5.972
   15CHL1   H2B 1085  -0.112   6.617   5.928
   15CHL1   C20 1086   0.171   6.939   5.046
   15CHL1   H20 1087   0.082   6.993   5.006
   15CHL1   C21 1088   0.148   6.789   5.020
   15CHL1  H21A 1089   0.162   6.764   4.913
   15CHL1  H21B 1090   0.044   6.761   5.048
   15CHL1  H21C 1091   0.218   6.728   5.082
   15CHL1   C22 1092   0.297   6.995   4.973
   15CHL1  H22A 1093   0.285   7.105   4.968
   15CHL1  H22B 1094   0.386   6.981   5.038
   15CHL1   C23 1095   0.332   6.947   4.830
   15CHL1  H23A 1096   0.369   6.843   4.831
   15CHL1  H23B 1097   0.239   6.951   4.770
   15CHL1   C24 1098   0.435   7.041   4.763
   15CHL1  H24A 1099   0.390   7.142   4.769
   15CHL1  H24B 1100   0.529   7.042   4.823
   15CHL1   C25 1101   0.469   7.023   4.613
   15CHL1   H25 1102   0.492   7.124   4.574
   15CHL1   C26 1103   0.596   6.940   4.589
   15CHL1  H26A 1104   0.628   6.949   4.483
   15CHL1  H26B 1105   0.679   6.974   4.655
   15CHL1  H26C 1106   0.575   6.833   4.611
   15CHL1   C27 1107   0.353   6.967   4.529
   15CHL1  H27A 1108   0.386   6.950   4.424
   15CHL1  H27B 1109   0.317   6.870   4.570
   15CHL1  H27C 1110   0.270   7.040   4.528
   16CHL1    C3 1111   4.565   4.240   2.507
   16CHL1    H3 1112   4.483   4.166   2.514
   16CHL1    O3 1113   4.579   4.278   2.371
   16CHL1   H3' 1114   4.510   4.342   2.355
   16CHL1    C4 1115   4.530   4.363   2.593
   16CHL1   H4A 1116   4.610   4.439   2.582
   16CHL1   H4B 1117   4.437   4.409   2.553
   16CHL1    C5 1118   4.515   4.321   2.737
   16CHL1    C6 1119   4.396   4.329   2.799
   16CHL1    H6 1120   4.310   4.373   2.746
   16CHL1    C7 1121   4.376   4.285   2.941
   16CHL1   H7A 1122   4.300   4.346   2.993
   16CHL1   H7B 1123   4.337   4.180   2.943
   16CHL1    C8 1124   4.509   4.290   3.018
   16CHL1    H8 1125   4.546   4.395   3.017
   16CHL1   C14 1126   4.488   4.249   3.162
   16CHL1   H14 1127   4.444   4.147   3.160
   16CHL1   C15 1128   4.390   4.335   3.244
   16CHL1  H15A 1129   4.415   4.442   3.225
   16CHL1  H15B 1130   4.284   4.317   3.218
   16CHL1   C16 1131   4.423   4.300   3.389
   16CHL1  H16A 1132   4.439   4.394   3.446
   16CHL1  H16B 1133   4.340   4.243   3.436
   16CHL1   C17 1134   4.553   4.215   3.386
   16CHL1   H17 1135   4.521   4.108   3.386
   16CHL1   C13 1136   4.615   4.239   3.246
   16CHL1   C18 1137   4.692   4.374   3.249
   16CHL1  H18A 1138   4.787   4.361   3.305
   16CHL1  H18B 1139   4.718   4.409   3.147
   16CHL1  H18C 1140   4.632   4.453   3.299
   16CHL1   C12 1141   4.699   4.126   3.181
   16CHL1  H12A 1142   4.793   4.109   3.236
   16CHL1  H12B 1143   4.640   4.032   3.183
   16CHL1   C11 1144   4.733   4.161   3.034
   16CHL1  H11A 1145   4.807   4.244   3.038
   16CHL1  H11B 1146   4.784   4.075   2.986
   16CHL1    C9 1147   4.610   4.201   2.946
   16CHL1    H9 1148   4.556   4.105   2.931
   16CHL1   C10 1149   4.640   4.256   2.803
   16CHL1   C19 1150   4.754   4.361   2.813
   16CHL1  H19A 1151   4.849   4.312   2.843
   16CHL1  H19B 1152   4.774   4.410   2.715
   16CHL1  H19C 1153   4.728   4.440   2.887
   16CHL1    C1 1154   4.682   4.141   2.708
   16CHL1   H1A 1155   4.777   4.095   2.744
   16CHL1   H1B 1156   4.602   4.064   2.716
   16CHL1    C2 1157   4.695   4.176   2.559
   16CHL1   H2A 1158   4.716   4.084   2.501
   16CHL1   H2B 1159   4.779   4.246   2.544
   16CHL1   C20 1160   4.638   4.239   3.511
   16CHL1   H20 1161   4.679   4.342   3.509
   16CHL1   C21 1162   4.756   4.140   3.516
   16CHL1  H21A 1163   4.811   4.150   3.612
   16CHL1  H21B 1164   4.829   4.161   3.434
   16CHL1  H21C 1165   4.720   4.036   3.506
   16CHL1   C22 1166   4.556   4.226   3.641
   16CHL1  H22A 1167   4.452   4.191   3.619
   16CHL1  H22B 1168   4.602   4.146   3.704
   16CHL1   C23 1169   4.546   4.352   3.728
   16CHL1  H23A 1170   4.648   4.376   3.765
   16CHL1  H23B 1171   4.512   4.438   3.667
   16CHL1   C24 1172   4.447   4.329   3.843
   16CHL1  H24A 1173   4.344   4.339   3.804
   16CHL1  H24B 1174   4.459   4.225   3.881
   16CHL1   C25 1175   4.465   4.423   3.964
   16CHL1   H25 1176   4.465   4.528   3.927
   16CHL1   C26 1177   4.350   4.407   4.064
   16CHL1  H26A 1178   4.252   4.426   4.014
   16CHL1  H26B 1179   4.349   4.304   4.105
   16CHL1  H26C 1180   4.361   4.479   4.148
   16CHL1   C27 1181   4.599   4.395   4.034
   16CHL1  H27A 1182   4.610   4.286   4.054
   16CHL1  H27B 1183   4.685   4.428   3.972
   16CHL1  H27C 1184   4.602   4.448   4.131
   17CHL1    C3 1185   3.145   4.913   2.465
   17CHL1    H3 1186   3.243   4.964   2.451
   17CHL1    O3 1187   3.079   4.907   2.339
   17CHL1   H3' 1188   3.137   4.858   2.280
   17CHL1    C4 1189   3.167   4.773   2.522
   17CHL1   H4A 1190   3.070   4.719   2.527
   17CHL1   H4B 1191   3.231   4.716   2.452
   17CHL1    C5 1192   3.229   4.780   2.661
   17CHL1    C6 1193   3.345   4.720   2.688
   17CHL1    H6 1194   3.395   4.662   2.609
   17CHL1    C7 1195   3.411   4.720   2.823
   17CHL1   H7A 1196   3.450   4.619   2.849
   17CHL1   H7B 1197   3.498   4.789   2.818
   17CHL1    C8 1198   3.318   4.769   2.937
   17CHL1    H8 1199   3.246   4.689   2.961
   17CHL1   C14 1200   3.400   4.801   3.061
   17CHL1   H14 1201   3.469   4.883   3.031
   17CHL1   C15 1202   3.493   4.691   3.115
   17CHL1  H15A 1203   3.440   4.593   3.121
   17CHL1  H15B 1204   3.582   4.676   3.050
   17CHL1   C16 1205   3.527   4.738   3.256
   17CHL1  H16A 1206   3.514   4.652   3.325
   17CHL1  H16B 1207   3.633   4.772   3.262
   17CHL1   C17 1208   3.434   4.859   3.286
   17CHL1   H17 1209   3.492   4.949   3.256
   17CHL1   C13 1210   3.321   4.854   3.180
   17CHL1   C18 1211   3.213   4.753   3.225
   17CHL1  H18A 1212   3.144   4.725   3.142
   17CHL1  H18B 1213   3.259   4.660   3.265
   17CHL1  H18C 1214   3.151   4.798   3.306
   17CHL1   C12 1215   3.259   4.987   3.134
   17CHL1  H12A 1216   3.198   5.031   3.216
   17CHL1  H12B 1217   3.340   5.059   3.109
   17CHL1   C11 1218   3.169   4.967   3.009
   17CHL1  H11A 1219   3.080   4.908   3.041
   17CHL1  H11B 1220   3.134   5.066   2.975
   17CHL1    C9 1221   3.242   4.894   2.892
   17CHL1    H9 1222   3.322   4.965   2.860
   17CHL1   C10 1223   3.156   4.867   2.765
   17CHL1   C19 1224   3.027   4.791   2.806
   17CHL1  H19A 1225   2.964   4.853   2.873
   17CHL1  H19B 1226   2.965   4.764   2.718
   17CHL1  H19C 1227   3.053   4.697   2.860
   17CHL1    C1 1228   3.121   5.004   2.700
   17CHL1   H1A 1229   3.052   5.059   2.768
   17CHL1   H1B 1230   3.214   5.063   2.692
   17CHL1    C2 1231   3.058   4.994   2.561
   17CHL1   H2A 1232   3.043   5.097   2.520
   17CHL1   H2B 1233   2.959   4.944   2.569
   17CHL1   C20 1234   3.406   4.883   3.436
   17CHL1   H20 1235   3.504   4.913   3.480
   17CHL1   C21 1236   3.363   4.757   3.516
   17CHL1  H21A 1237   3.440   4.677   3.510
   17CHL1  H21B 1238   3.265   4.718   3.481
   17CHL1  H21C 1239   3.352   4.780   3.624
   17CHL1   C22 1240   3.310   5.000   3.463
   17CHL1  H22A 1241   3.338   5.085   3.398
   17CHL1  H22B 1242   3.207   4.968   3.438
   17CHL1   C23 1243   3.314   5.049   3.609
   17CHL1  H23A 1244   3.290   4.967   3.680
   17CHL1  H23B 1245   3.416   5.084   3.630
   17CHL1   C24 1246   3.212   5.160   3.632
   17CHL1  H24A 1247   3.241   5.246   3.566
   17CHL1  H24B 1248   3.111   5.126   3.601
   17CHL1   C25 1249   3.202   5.211   3.776
   17CHL1   H25 1250   3.140   5.139   3.835
   17CHL1   C26 1251   3.339   5.218   3.845
   17CHL1  H26A 1252   3.412   5.271   3.781
   17CHL1  H26B 1253   3.331   5.270   3.943
   17CHL1  H26C 1254   3.378   5.115   3.865
   17CHL1   C27 1255   3.129   5.346   3.775
   17CHL1  H27A 1256   3.145   5.399   3.678
   17CHL1  H27B 1257   3.019   5.331   3.785
   17CHL1  H27C 1258   3.165   5.412   3.856
   18CHL1    C3 1259   4.045   2.711   2.496
   18CHL1    H3 1260   3.961   2.648   2.532
   18CHL1    O3 1261   4.049   2.706   2.355
   18CHL1   H3' 1262   3.960   2.732   2.328
   18CHL1    C4 1263   4.024   2.856   2.542
   18CHL1   H4A 1264   4.105   2.919   2.500
   18CHL1   H4B 1265   3.929   2.894   2.497
   18CHL1    C5 1266   4.023   2.866   2.693
   18CHL1    C6 1267   3.917   2.919   2.759
   18CHL1    H6 1268   3.832   2.959   2.702
   18CHL1    C7 1269   3.913   2.937   2.908
   18CHL1   H7A 1270   3.874   3.038   2.933
   18CHL1   H7B 1271   3.844   2.862   2.954
   18CHL1    C8 1272   4.054   2.921   2.971
   18CHL1    H8 1273   4.110   3.011   2.940
   18CHL1   C14 1274   4.045   2.916   3.122
   18CHL1   H14 1275   3.989   2.824   3.149
   18CHL1   C15 1276   3.971   3.031   3.190
   18CHL1  H15A 1277   3.996   3.127   3.140
   18CHL1  H15B 1278   3.861   3.016   3.184
   18CHL1   C16 1279   4.023   3.031   3.334
   18CHL1  H16A 1280   4.052   3.135   3.360
   18CHL1  H16B 1281   3.945   2.997   3.405
   18CHL1   C17 1282   4.147   2.936   3.338
   18CHL1   H17 1283   4.113   2.840   3.384
   18CHL1   C13 1284   4.181   2.905   3.190
   18CHL1   C18 1285   4.276   3.015   3.137
   18CHL1  H18A 1286   4.373   3.019   3.190
   18CHL1  H18B 1287   4.300   2.999   3.030
   18CHL1  H18C 1288   4.226   3.113   3.146
   18CHL1   C12 1289   4.234   2.764   3.155
   18CHL1  H12A 1290   4.333   2.745   3.202
   18CHL1  H12B 1291   4.163   2.688   3.194
   18CHL1   C11 1292   4.248   2.748   3.001
   18CHL1  H11A 1293   4.339   2.804   2.972
   18CHL1  H11B 1294   4.269   2.641   2.979
   18CHL1    C9 1295   4.124   2.795   2.918
   18CHL1    H9 1296   4.049   2.714   2.933
   18CHL1   C10 1297   4.146   2.805   2.764
   18CHL1   C19 1298   4.267   2.899   2.735
   18CHL1  H19A 1299   4.282   2.915   2.626
   18CHL1  H19B 1300   4.253   2.998   2.783
   18CHL1  H19C 1301   4.362   2.854   2.774
   18CHL1    C1 1302   4.175   2.663   2.707
   18CHL1   H1A 1303   4.273   2.628   2.746
   18CHL1   H1B 1304   4.097   2.594   2.745
   18CHL1    C2 1305   4.176   2.655   2.553
   18CHL1   H2A 1306   4.189   2.549   2.522
   18CHL1   H2B 1307   4.261   2.714   2.513
   18CHL1   C20 1308   4.257   2.996   3.426
   18CHL1   H20 1309   4.289   3.092   3.381
   18CHL1   C21 1310   4.380   2.904   3.433
   18CHL1  H21A 1311   4.359   2.810   3.488
   18CHL1  H21B 1312   4.462   2.959   3.485
   18CHL1  H21C 1313   4.420   2.878   3.333
   18CHL1   C22 1314   4.211   3.034   3.570
   18CHL1  H22A 1315   4.301   3.068   3.625
   18CHL1  H22B 1316   4.141   3.119   3.567
   18CHL1   C23 1317   4.146   2.919   3.649
   18CHL1  H23A 1318   4.044   2.902   3.609
   18CHL1  H23B 1319   4.204   2.826   3.635
   18CHL1   C24 1320   4.140   2.947   3.800
   18CHL1  H24A 1321   4.243   2.970   3.836
   18CHL1  H24B 1322   4.078   3.037   3.820
   18CHL1   C25 1323   4.086   2.828   3.881
   18CHL1   H25 1324   4.142   2.737   3.851
   18CHL1   C26 1325   4.109   2.849   4.032
   18CHL1  H26A 1326   4.217   2.858   4.053
   18CHL1  H26B 1327   4.058   2.942   4.066
   18CHL1  H26C 1328   4.069   2.763   4.090
   18CHL1   C27 1329   3.937   2.805   3.852
   18CHL1  H27A 1330   3.897   2.724   3.917
   18CHL1  H27B 1331   3.880   2.898   3.872
   18CHL1  H27C 1332   3.921   2.776   3.746
   19CHL1    C3 1333   4.390   5.634   2.517
   19CHL1    H3 1334   4.415   5.527   2.535
   19CHL1    O3 1335   4.367   5.652   2.378
   19CHL1   H3' 1336   4.294   5.595   2.355
   19CHL1    C4 1337   4.263   5.672   2.594
   19CHL1   H4A 1338   4.237   5.778   2.570
   19CHL1   H4B 1339   4.179   5.609   2.556
   19CHL1    C5 1340   4.285   5.654   2.742
   19CHL1    C6 1341   4.208   5.570   2.813
   19CHL1    H6 1342   4.124   5.519   2.764
   19CHL1    C7 1343   4.226   5.545   2.959
   19CHL1   H7A 1344   4.127   5.538   3.008
   19CHL1   H7B 1345   4.277   5.448   2.974
   19CHL1    C8 1346   4.310   5.655   3.028
   19CHL1    H8 1347   4.249   5.748   3.034
   19CHL1   C14 1348   4.346   5.610   3.168
   19CHL1   H14 1349   4.409   5.519   3.157
   19CHL1   C15 1350   4.229   5.567   3.258
   19CHL1  H15A 1351   4.148   5.642   3.246
   19CHL1  H15B 1352   4.192   5.466   3.233
   19CHL1   C16 1353   4.286   5.577   3.399
   19CHL1  H16A 1354   4.223   5.648   3.457
   19CHL1  H16B 1355   4.290   5.479   3.452
   19CHL1   C17 1356   4.430   5.634   3.386
   19CHL1   H17 1357   4.497   5.547   3.373
   19CHL1   C13 1358   4.429   5.709   3.250
   19CHL1   C18 1359   4.355   5.844   3.269
   19CHL1  H18A 1360   4.257   5.831   3.320
   19CHL1  H18B 1361   4.417   5.912   3.332
   19CHL1  H18C 1362   4.337   5.894   3.172
   19CHL1   C12 1363   4.563   5.726   3.174
   19CHL1  H12A 1364   4.628   5.801   3.224
   19CHL1  H12B 1365   4.616   5.629   3.172
   19CHL1   C11 1366   4.539   5.773   3.028
   19CHL1  H11A 1367   4.502   5.877   3.033
   19CHL1  H11B 1368   4.636   5.775   2.974
   19CHL1    C9 1369   4.438   5.683   2.949
   19CHL1    H9 1370   4.488   5.585   2.940
   19CHL1   C10 1371   4.406   5.729   2.803
   19CHL1   C19 1372   4.370   5.879   2.804
   19CHL1  H19A 1373   4.459   5.938   2.836
   19CHL1  H19B 1374   4.342   5.916   2.703
   19CHL1  H19C 1375   4.286   5.900   2.874
   19CHL1    C1 1376   4.531   5.705   2.713
   19CHL1   H1A 1377   4.612   5.774   2.745
   19CHL1   H1B 1378   4.568   5.601   2.731
   19CHL1    C2 1379   4.507   5.721   2.562
   19CHL1   H2A 1380   4.599   5.694   2.506
   19CHL1   H2B 1381   4.484   5.828   2.539
   19CHL1   C20 1382   4.471   5.704   3.516
   19CHL1   H20 1383   4.404   5.791   3.535
   19CHL1   C21 1384   4.614   5.757   3.501
   19CHL1  H21A 1385   4.682   5.675   3.469
   19CHL1  H21B 1386   4.650   5.797   3.598
   19CHL1  H21C 1387   4.619   5.840   3.427
   19CHL1   C22 1388   4.465   5.610   3.639
   19CHL1  H22A 1389   4.490   5.507   3.607
   19CHL1  H22B 1390   4.545   5.642   3.709
   19CHL1   C23 1391   4.333   5.609   3.719
   19CHL1  H23A 1392   4.305   5.712   3.748
   19CHL1  H23B 1393   4.250   5.569   3.656
   19CHL1   C24 1394   4.341   5.520   3.845
   19CHL1  H24A 1395   4.238   5.495   3.879
   19CHL1  H24B 1396   4.390   5.424   3.817
   19CHL1   C25 1397   4.416   5.585   3.962
   19CHL1   H25 1398   4.501   5.644   3.920
   19CHL1   C26 1399   4.324   5.680   4.039
   19CHL1  H26A 1400   4.381   5.726   4.123
   19CHL1  H26B 1401   4.285   5.760   3.973
   19CHL1  H26C 1402   4.239   5.624   4.083
   19CHL1   C27 1403   4.475   5.482   4.058
   19CHL1  H27A 1404   4.532   5.532   4.139
   19CHL1  H27B 1405   4.393   5.423   4.105
   19CHL1  H27C 1406   4.543   5.413   4.004
   20CHL1    C3 1407   1.593   4.397   2.515
   20CHL1    H3 1408   1.702   4.373   2.513
   20CHL1    O3 1409   1.545   4.402   2.381
   20CHL1   H3' 1410   1.568   4.315   2.346
   20CHL1    C4 1411   1.517   4.288   2.592
   20CHL1   H4A 1412   1.408   4.309   2.587
   20CHL1   H4B 1413   1.532   4.191   2.539
   20CHL1    C5 1414   1.564   4.282   2.736
   20CHL1    C6 1415   1.621   4.171   2.783
   20CHL1    H6 1416   1.630   4.082   2.719
   20CHL1    C7 1417   1.673   4.156   2.923
   20CHL1   H7A 1418   1.648   4.055   2.961
   20CHL1   H7B 1419   1.783   4.166   2.924
   20CHL1    C8 1420   1.612   4.263   3.015
   20CHL1    H8 1421   1.505   4.237   3.029
   20CHL1   C14 1422   1.682   4.260   3.149
   20CHL1   H14 1423   1.786   4.295   3.131
   20CHL1   C15 1424   1.698   4.123   3.217
   20CHL1  H15A 1425   1.603   4.066   3.209
   20CHL1  H15B 1426   1.780   4.063   3.172
   20CHL1   C16 1427   1.725   4.159   3.363
   20CHL1  H16A 1428   1.654   4.105   3.429
   20CHL1  H16B 1429   1.829   4.134   3.394
   20CHL1   C17 1430   1.706   4.313   3.376
   20CHL1   H17 1431   1.805   4.360   3.361
   20CHL1   C13 1432   1.623   4.354   3.253
   20CHL1   C18 1433   1.474   4.320   3.279
   20CHL1  H18A 1434   1.461   4.214   3.311
   20CHL1  H18B 1435   1.430   4.385   3.358
   20CHL1  H18C 1436   1.413   4.335   3.187
   20CHL1   C12 1437   1.643   4.498   3.198
   20CHL1  H12A 1438   1.599   4.573   3.267
   20CHL1  H12B 1439   1.752   4.517   3.191
   20CHL1   C11 1440   1.581   4.515   3.058
   20CHL1  H11A 1441   1.471   4.515   3.074
   20CHL1  H11B 1442   1.608   4.614   3.017
   20CHL1    C9 1443   1.622   4.404   2.955
   20CHL1    H9 1444   1.731   4.419   2.937
   20CHL1   C10 1445   1.553   4.414   2.816
   20CHL1   C19 1446   1.406   4.456   2.837
   20CHL1  H19A 1447   1.361   4.400   2.921
   20CHL1  H19B 1448   1.400   4.564   2.862
   20CHL1  H19C 1449   1.344   4.440   2.746
   20CHL1    C1 1450   1.623   4.523   2.730
   20CHL1   H1A 1451   1.611   4.623   2.779
   20CHL1   H1B 1452   1.732   4.500   2.728
   20CHL1    C2 1453   1.575   4.532   2.584
   20CHL1   H2A 1454   1.633   4.610   2.530
   20CHL1   H2B 1455   1.468   4.561   2.581
   20CHL1   C20 1456   1.660   4.349   3.517
   20CHL1   H20 1457   1.569   4.291   3.541
   20CHL1   C21 1458   1.624   4.499   3.528
   20CHL1  H21A 1459   1.613   4.530   3.634
   20CHL1  H21B 1460   1.528   4.521   3.477
   20CHL1  H21C 1461   1.702   4.562   3.480
   20CHL1   C22 1462   1.771   4.307   3.617
   20CHL1  H22A 1463   1.791   4.198   3.606
   20CHL1  H22B 1464   1.865   4.359   3.590
   20CHL1   C23 1465   1.741   4.329   3.765
   20CHL1  H23A 1466   1.829   4.295   3.824
   20CHL1  H23B 1467   1.729   4.438   3.786
   20CHL1   C24 1468   1.618   4.250   3.810
   20CHL1  H24A 1469   1.526   4.291   3.763
   20CHL1  H24B 1470   1.630   4.144   3.776
   20CHL1   C25 1471   1.601   4.251   3.962
   20CHL1   H25 1472   1.698   4.220   4.007
   20CHL1   C26 1473   1.565   4.392   4.012
   20CHL1  H26A 1474   1.544   4.390   4.121
   20CHL1  H26B 1475   1.649   4.462   3.994
   20CHL1  H26C 1476   1.476   4.431   3.959
   20CHL1   C27 1477   1.498   4.146   4.005
   20CHL1  H27A 1478   1.481   4.151   4.115
   20CHL1  H27B 1479   1.402   4.162   3.953
   20CHL1  H27C 1480   1.534   4.044   3.980
   21CHL1    C3 1481   1.274   3.537   2.483
   21CHL1    H3 1482   1.350   3.456   2.482
   21CHL1    O3 1483   1.254   3.582   2.350
   21CHL1   H3' 1484   1.228   3.502   2.303
   21CHL1    C4 1485   1.141   3.482   2.537
   21CHL1   H4A 1486   1.066   3.564   2.534
   21CHL1   H4B 1487   1.105   3.404   2.467
   21CHL1    C5 1488   1.157   3.430   2.678
   21CHL1    C6 1489   1.126   3.303   2.708
   21CHL1    H6 1490   1.086   3.237   2.629
   21CHL1    C7 1491   1.137   3.246   2.845
   21CHL1   H7A 1492   1.045   3.190   2.871
   21CHL1   H7B 1493   1.223   3.176   2.848
   21CHL1    C8 1494   1.159   3.354   2.956
   21CHL1    H8 1495   1.061   3.401   2.979
   21CHL1   C14 1496   1.213   3.286   3.080
   21CHL1   H14 1497   1.315   3.252   3.050
   21CHL1   C15 1498   1.143   3.158   3.123
   21CHL1  H15A 1499   1.033   3.170   3.111
   21CHL1  H15B 1500   1.176   3.072   3.060
   21CHL1   C16 1501   1.183   3.143   3.269
   21CHL1  H16A 1502   1.092   3.149   3.333
   21CHL1  H16B 1503   1.233   3.046   3.288
   21CHL1   C17 1504   1.279   3.260   3.301
   21CHL1   H17 1505   1.380   3.228   3.266
   21CHL1   C13 1506   1.237   3.373   3.203
   21CHL1   C18 1507   1.107   3.437   3.255
   21CHL1  H18A 1508   1.130   3.506   3.339
   21CHL1  H18B 1509   1.056   3.496   3.176
   21CHL1  H18C 1510   1.036   3.361   3.294
   21CHL1   C12 1511   1.339   3.482   3.163
   21CHL1  H12A 1512   1.347   3.557   3.245
   21CHL1  H12B 1513   1.439   3.436   3.150
   21CHL1   C11 1514   1.296   3.555   3.033
   21CHL1  H11A 1515   1.208   3.616   3.058
   21CHL1  H11B 1516   1.378   3.624   3.002
   21CHL1    C9 1517   1.260   3.460   2.913
   21CHL1    H9 1518   1.354   3.405   2.890
   21CHL1   C10 1519   1.217   3.529   2.781
   21CHL1   C19 1520   1.106   3.629   2.815
   21CHL1  H19A 1521   1.146   3.712   2.877
   21CHL1  H19B 1522   1.062   3.673   2.722
   21CHL1  H19C 1523   1.022   3.581   2.871
   21CHL1    C1 1524   1.341   3.600   2.718
   21CHL1   H1A 1525   1.372   3.684   2.783
   21CHL1   H1B 1526   1.423   3.525   2.716
   21CHL1    C2 1527   1.323   3.650   2.574
   21CHL1   H2A 1528   1.420   3.690   2.535
   21CHL1   H2B 1529   1.249   3.734   2.572
   21CHL1   C20 1530   1.290   3.285   3.452
   21CHL1   H20 1531   1.191   3.321   3.486
   21CHL1   C21 1532   1.389   3.400   3.479
   21CHL1  H21A 1533   1.419   3.401   3.586
   21CHL1  H21B 1534   1.340   3.497   3.456
   21CHL1  H21C 1535   1.479   3.390   3.415
   21CHL1   C22 1536   1.317   3.158   3.542
   21CHL1  H22A 1537   1.353   3.196   3.640
   21CHL1  H22B 1538   1.216   3.116   3.560
   21CHL1   C23 1539   1.410   3.039   3.501
   21CHL1  H23A 1540   1.363   2.979   3.419
   21CHL1  H23B 1541   1.505   3.080   3.460
   21CHL1   C24 1542   1.435   2.940   3.619
   21CHL1  H24A 1543   1.464   3.000   3.708
   21CHL1  H24B 1544   1.338   2.891   3.642
   21CHL1   C25 1545   1.535   2.820   3.610
   21CHL1   H25 1546   1.639   2.859   3.611
   21CHL1   C26 1547   1.519   2.733   3.735
   21CHL1  H26A 1548   1.536   2.794   3.827
   21CHL1  H26B 1549   1.416   2.691   3.740
   21CHL1  H26C 1550   1.592   2.649   3.735
   21CHL1   C27 1551   1.525   2.732   3.485
   21CHL1  H27A 1552   1.430   2.675   3.485
   21CHL1  H27B 1553   1.533   2.793   3.392
   21CHL1  H27C 1554   1.608   2.658   3.485
   22CHL1    C3 1555   4.613   6.391   2.497
   22CHL1    H3 1556   4.693   6.469   2.502
   22CHL1    O3 1557   4.583   6.363   2.361
   22CHL1   H3' 1558   4.668   6.337   2.324
   22CHL1    C4 1559   4.664   6.262   2.565
   22CHL1   H4A 1560   4.592   6.181   2.542
   22CHL1   H4B 1561   4.760   6.234   2.516
   22CHL1    C5 1562   4.680   6.274   2.716
   22CHL1    C6 1563   4.794   6.240   2.778
   22CHL1    H6 1564   4.879   6.202   2.720
   22CHL1    C7 1565   4.812   6.242   2.928
   22CHL1   H7A 1566   4.860   6.148   2.962
   22CHL1   H7B 1567   4.878   6.326   2.957
   22CHL1    C8 1568   4.676   6.255   3.003
   22CHL1    H8 1569   4.623   6.158   2.994
   22CHL1   C14 1570   4.699   6.285   3.150
   22CHL1   H14 1571   4.757   6.380   3.154
   22CHL1   C15 1572   4.782   6.183   3.231
   22CHL1  H15A 1573   4.755   6.079   3.201
   22CHL1  H15B 1574   4.891   6.198   3.215
   22CHL1   C16 1575   4.741   6.209   3.377
   22CHL1  H16A 1576   4.698   6.116   3.420
   22CHL1  H16B 1577   4.826   6.241   3.440
   22CHL1   C17 1578   4.632   6.321   3.373
   22CHL1   H17 1579   4.686   6.418   3.373
   22CHL1   C13 1580   4.572   6.309   3.231
   22CHL1   C18 1581   4.481   6.184   3.226
   22CHL1  H18A 1582   4.449   6.159   3.123
   22CHL1  H18B 1583   4.532   6.094   3.267
   22CHL1  H18C 1584   4.389   6.201   3.286
   22CHL1   C12 1585   4.505   6.434   3.171
   22CHL1  H12A 1586   4.412   6.461   3.226
   22CHL1  H12B 1587   4.575   6.520   3.180
   22CHL1   C11 1588   4.470   6.412   3.023
   22CHL1  H11A 1589   4.388   6.337   3.019
   22CHL1  H11B 1590   4.429   6.507   2.982
   22CHL1    C9 1591   4.592   6.366   2.938
   22CHL1    H9 1592   4.659   6.455   2.935
   22CHL1   C10 1593   4.558   6.333   2.790
   22CHL1   C19 1594   4.444   6.228   2.787
   22CHL1  H19A 1595   4.349   6.272   2.823
   22CHL1  H19B 1596   4.425   6.190   2.684
   22CHL1  H19C 1597   4.470   6.142   2.852
   22CHL1    C1 1598   4.511   6.462   2.718
   22CHL1   H1A 1599   4.417   6.497   2.765
   22CHL1   H1B 1600   4.588   6.541   2.733
   22CHL1    C2 1601   4.488   6.445   2.567
   22CHL1   H2A 1602   4.460   6.543   2.522
   22CHL1   H2B 1603   4.404   6.374   2.550
   22CHL1   C20 1604   4.544   6.318   3.499
   22CHL1   H20 1605   4.505   6.215   3.513
   22CHL1   C21 1606   4.424   6.414   3.487
   22CHL1  H21A 1607   4.458   6.517   3.465
   22CHL1  H21B 1608   4.364   6.416   3.580
   22CHL1  H21C 1609   4.355   6.381   3.406
   22CHL1   C22 1610   4.631   6.357   3.621
   22CHL1  H22A 1611   4.720   6.291   3.626
   22CHL1  H22B 1612   4.667   6.460   3.606
   22CHL1   C23 1613   4.564   6.349   3.759
   22CHL1  H23A 1614   4.471   6.409   3.761
   22CHL1  H23B 1615   4.537   6.243   3.782
   22CHL1   C24 1616   4.659   6.403   3.867
   22CHL1  H24A 1617   4.756   6.348   3.859
   22CHL1  H24B 1618   4.680   6.510   3.845
   22CHL1   C25 1619   4.610   6.392   4.013
   22CHL1   H25 1620   4.596   6.285   4.037
   22CHL1   C26 1621   4.717   6.451   4.106
   22CHL1  H26A 1622   4.746   6.553   4.072
   22CHL1  H26B 1623   4.678   6.460   4.210
   22CHL1  H26C 1624   4.808   6.387   4.107
   22CHL1   C27 1625   4.477   6.464   4.037
   22CHL1  H27A 1626   4.491   6.573   4.020
   22CHL1  H27B 1627   4.398   6.428   3.968
   22CHL1  H27C 1628   4.443   6.449   4.141
   23CHL1    C3 1629   6.332   2.473   2.516
   23CHL1    H3 1630   6.433   2.518   2.525
   23CHL1    O3 1631   6.295   2.464   2.379
   23CHL1   H3' 1632   6.364   2.408   2.341
   23CHL1    C4 1633   6.335   2.331   2.575
   23CHL1   H4A 1634   6.238   2.285   2.548
   23CHL1   H4B 1635   6.414   2.272   2.523
   23CHL1    C5 1636   6.355   2.330   2.725
   23CHL1    C6 1637   6.460   2.269   2.782
   23CHL1    H6 1638   6.532   2.214   2.720
   23CHL1    C7 1639   6.483   2.266   2.930
   23CHL1   H7A 1640   6.520   2.166   2.961
   23CHL1   H7B 1641   6.561   2.341   2.957
   23CHL1    C8 1642   6.354   2.294   3.011
   23CHL1    H8 1643   6.289   2.205   3.001
   23CHL1   C14 1644   6.389   2.318   3.158
   23CHL1   H14 1645   6.443   2.415   3.161
   23CHL1   C15 1646   6.484   2.219   3.227
   23CHL1  H15A 1647   6.455   2.115   3.201
   23CHL1  H15B 1648   6.590   2.236   3.198
   23CHL1   C16 1649   6.461   2.246   3.377
   23CHL1  H16A 1650   6.434   2.150   3.427
   23CHL1  H16B 1651   6.551   2.288   3.426
   23CHL1   C17 1652   6.342   2.346   3.386
   23CHL1   H17 1653   6.387   2.448   3.386
   23CHL1   C13 1654   6.269   2.333   3.250
   23CHL1   C18 1655   6.186   2.202   3.252
   23CHL1  H18A 1656   6.139   2.183   3.153
   23CHL1  H18B 1657   6.247   2.114   3.280
   23CHL1  H18C 1658   6.104   2.212   3.326
   23CHL1   C12 1659   6.184   2.453   3.201
   23CHL1  H12A 1660   6.086   2.456   3.253
   23CHL1  H12B 1661   6.237   2.547   3.226
   23CHL1   C11 1662   6.155   2.447   3.049
   23CHL1  H11A 1663   6.081   2.365   3.038
   23CHL1  H11B 1664   6.108   2.542   3.017
   23CHL1    C9 1665   6.279   2.416   2.959
   23CHL1    H9 1666   6.350   2.501   2.971
   23CHL1   C10 1667   6.250   2.410   2.805
   23CHL1   C19 1668   6.109   2.349   2.787
   23CHL1  H19A 1669   6.031   2.418   2.825
   23CHL1  H19B 1670   6.085   2.326   2.681
   23CHL1  H19C 1671   6.103   2.254   2.845
   23CHL1    C1 1672   6.254   2.553   2.745
   23CHL1   H1A 1673   6.178   2.613   2.799
   23CHL1   H1B 1674   6.353   2.599   2.767
   23CHL1    C2 1675   6.231   2.560   2.592
   23CHL1   H2A 1676   6.241   2.664   2.557
   23CHL1   H2B 1677   6.128   2.525   2.570
   23CHL1   C20 1678   6.264   2.332   3.518
   23CHL1   H20 1679   6.226   2.228   3.525
   23CHL1   C21 1680   6.144   2.429   3.521
   23CHL1  H21A 1681   6.068   2.398   3.446
   23CHL1  H21B 1682   6.177   2.533   3.498
   23CHL1  H21C 1683   6.093   2.428   3.619
   23CHL1   C22 1684   6.356   2.357   3.641
   23CHL1  H22A 1685   6.447   2.294   3.633
   23CHL1  H22B 1686   6.388   2.463   3.640
   23CHL1   C23 1687   6.290   2.324   3.776
   23CHL1  H23A 1688   6.196   2.381   3.788
   23CHL1  H23B 1689   6.265   2.216   3.778
   23CHL1   C24 1690   6.379   2.360   3.896
   23CHL1  H24A 1691   6.476   2.306   3.889
   23CHL1  H24B 1692   6.401   2.469   3.892
   23CHL1   C25 1693   6.312   2.328   4.031
   23CHL1   H25 1694   6.207   2.363   4.027
   23CHL1   C26 1695   6.311   2.177   4.060
   23CHL1  H26A 1696   6.249   2.124   3.985
   23CHL1  H26B 1697   6.414   2.137   4.057
   23CHL1  H26C 1698   6.269   2.158   4.161
   23CHL1   C27 1699   6.381   2.403   4.146
   23CHL1  H27A 1700   6.488   2.376   4.150
   23CHL1  H27B 1701   6.372   2.513   4.130
   23CHL1  H27C 1702   6.334   2.378   4.243
   24CHL1    C3 1703   1.069   4.943   2.507
   24CHL1    H3 1704   1.077   4.833   2.516
   24CHL1    O3 1705   1.036   4.975   2.373
   24CHL1   H3' 1706   0.985   5.057   2.376
   24CHL1    C4 1707   0.959   4.993   2.604
   24CHL1   H4A 1708   0.947   5.103   2.589
   24CHL1   H4B 1709   0.863   4.946   2.574
   24CHL1    C5 1710   0.994   4.964   2.749
   24CHL1    C6 1711   0.911   4.894   2.828
   24CHL1    H6 1712   0.815   4.860   2.789
   24CHL1    C7 1713   0.939   4.864   2.973
   24CHL1   H7A 1714   0.849   4.884   3.035
   24CHL1   H7B 1715   0.964   4.757   2.984
   24CHL1    C8 1716   1.057   4.948   3.032
   24CHL1    H8 1717   1.018   5.050   3.051
   24CHL1   C14 1718   1.106   4.885   3.162
   24CHL1   H14 1719   1.148   4.786   3.134
   24CHL1   C15 1720   1.001   4.855   3.270
   24CHL1  H15A 1721   0.933   4.941   3.282
   24CHL1  H15B 1722   0.942   4.765   3.243
   24CHL1   C16 1723   1.085   4.834   3.397
   24CHL1  H16A 1724   1.045   4.899   3.478
   24CHL1  H16B 1725   1.083   4.729   3.431
   24CHL1   C17 1726   1.232   4.876   3.362
   24CHL1   H17 1727   1.286   4.784   3.334
   24CHL1   C13 1728   1.219   4.960   3.233
   24CHL1   C18 1729   1.172   5.102   3.272
   24CHL1  H18A 1730   1.255   5.158   3.321
   24CHL1  H18B 1731   1.142   5.161   3.182
   24CHL1  H18C 1732   1.086   5.100   3.342
   24CHL1   C12 1733   1.339   4.962   3.135
   24CHL1  H12A 1734   1.423   5.020   3.177
   24CHL1  H12B 1735   1.373   4.857   3.120
   24CHL1   C11 1736   1.300   5.022   2.998
   24CHL1  H11A 1737   1.281   5.130   3.015
   24CHL1  H11B 1738   1.387   5.013   2.930
   24CHL1    C9 1739   1.174   4.956   2.933
   24CHL1    H9 1740   1.203   4.850   2.915
   24CHL1   C10 1741   1.133   5.013   2.795
   24CHL1   C19 1742   1.127   5.167   2.804
   24CHL1  H19A 1743   1.230   5.206   2.817
   24CHL1  H19B 1744   1.087   5.214   2.712
   24CHL1  H19C 1745   1.064   5.200   2.890
   24CHL1    C1 1746   1.240   4.972   2.689
   24CHL1   H1A 1747   1.337   5.020   2.714
   24CHL1   H1B 1748   1.256   4.862   2.696
   24CHL1    C2 1749   1.204   5.006   2.544
   24CHL1   H2A 1750   1.283   4.968   2.476
   24CHL1   H2B 1751   1.199   5.116   2.531
   24CHL1   C20 1752   1.304   4.938   3.484
   24CHL1   H20 1753   1.247   5.028   3.515
   24CHL1   C21 1754   1.448   4.980   3.448
   24CHL1  H21A 1755   1.448   5.068   3.379
   24CHL1  H21B 1756   1.502   4.896   3.400
   24CHL1  H21C 1757   1.504   5.010   3.539
   24CHL1   C22 1758   1.309   4.843   3.606
   24CHL1  H22A 1759   1.217   4.780   3.612
   24CHL1  H22B 1760   1.395   4.774   3.595
   24CHL1   C23 1761   1.319   4.919   3.740
   24CHL1  H23A 1762   1.400   4.995   3.733
   24CHL1  H23B 1763   1.224   4.973   3.757
   24CHL1   C24 1764   1.348   4.827   3.860
   24CHL1  H24A 1765   1.281   4.739   3.855
   24CHL1  H24B 1766   1.453   4.790   3.851
   24CHL1   C25 1767   1.330   4.895   3.998
   24CHL1   H25 1768   1.221   4.908   4.015
   24CHL1   C26 1769   1.386   4.805   4.109
   24CHL1  H26A 1770   1.371   4.853   4.208
   24CHL1  H26B 1771   1.335   4.707   4.110
   24CHL1  H26C 1772   1.495   4.788   4.094
   24CHL1   C27 1773   1.394   5.035   4.004
   24CHL1  H27A 1774   1.340   5.106   3.937
   24CHL1  H27B 1775   1.392   5.074   4.107
   24CHL1  H27C 1776   1.500   5.029   3.970
   25CHL1    C3 1777   6.510   5.361   2.487
   25CHL1    H3 1778   6.563   5.459   2.486
   25CHL1    O3 1779   6.531   5.293   2.364
   25CHL1   H3' 1780   6.622   5.314   2.341
   25CHL1    C4 1781   6.564   5.274   2.601
   25CHL1   H4A 1782   6.518   5.173   2.593
   25CHL1   H4B 1783   6.673   5.260   2.584
   25CHL1    C5 1784   6.536   5.332   2.738
   25CHL1    C6 1785   6.635   5.356   2.825
   25CHL1    H6 1786   6.739   5.331   2.798
   25CHL1    C7 1787   6.615   5.411   2.963
   25CHL1   H7A 1788   6.676   5.355   3.037
   25CHL1   H7B 1789   6.650   5.517   2.967
   25CHL1    C8 1790   6.467   5.407   3.006
   25CHL1    H8 1791   6.449   5.300   3.030
   25CHL1   C14 1792   6.444   5.495   3.127
   25CHL1   H14 1793   6.451   5.600   3.091
   25CHL1   C15 1794   6.545   5.487   3.243
   25CHL1  H15A 1795   6.562   5.381   3.270
   25CHL1  H15B 1796   6.642   5.535   3.218
   25CHL1   C16 1797   6.471   5.560   3.355
   25CHL1  H16A 1798   6.490   5.508   3.452
   25CHL1  H16B 1799   6.507   5.665   3.363
   25CHL1   C17 1800   6.319   5.562   3.319
   25CHL1   H17 1801   6.293   5.667   3.294
   25CHL1   C13 1802   6.306   5.481   3.188
   25CHL1   C18 1803   6.281   5.332   3.223
   25CHL1  H18A 1804   6.361   5.292   3.289
   25CHL1  H18B 1805   6.183   5.314   3.273
   25CHL1  H18C 1806   6.278   5.271   3.130
   25CHL1   C12 1807   6.206   5.533   3.083
   25CHL1  H12A 1808   6.101   5.522   3.119
   25CHL1  H12B 1809   6.224   5.642   3.067
   25CHL1   C11 1810   6.222   5.461   2.948
   25CHL1  H11A 1811   6.179   5.359   2.962
   25CHL1  H11B 1812   6.161   5.513   2.871
   25CHL1    C9 1813   6.370   5.451   2.896
   25CHL1    H9 1814   6.398   5.556   2.871
   25CHL1   C10 1815   6.388   5.370   2.764
   25CHL1   C19 1816   6.305   5.240   2.776
   25CHL1  H19A 1817   6.196   5.263   2.768
   25CHL1  H19B 1818   6.328   5.167   2.696
   25CHL1  H19C 1819   6.323   5.194   2.875
   25CHL1    C1 1820   6.335   5.454   2.644
   25CHL1   H1A 1821   6.226   5.472   2.656
   25CHL1   H1B 1822   6.384   5.553   2.645
   25CHL1    C2 1823   6.360   5.389   2.506
   25CHL1   H2A 1824   6.324   5.458   2.426
   25CHL1   H2B 1825   6.303   5.294   2.498
   25CHL1   C20 1826   6.231   5.519   3.437
   25CHL1   H20 1827   6.255   5.414   3.462
   25CHL1   C21 1828   6.082   5.529   3.402
   25CHL1  H21A 1829   6.060   5.628   3.356
   25CHL1  H21B 1830   6.020   5.517   3.493
   25CHL1  H21C 1831   6.050   5.452   3.329
   25CHL1   C22 1832   6.260   5.600   3.566
   25CHL1  H22A 1833   6.362   5.644   3.565
   25CHL1  H22B 1834   6.189   5.685   3.571
   25CHL1   C23 1835   6.249   5.512   3.693
   25CHL1  H23A 1836   6.142   5.485   3.708
   25CHL1  H23B 1837   6.306   5.418   3.676
   25CHL1   C24 1838   6.305   5.582   3.818
   25CHL1  H24A 1839   6.415   5.592   3.807
   25CHL1  H24B 1840   6.262   5.684   3.823
   25CHL1   C25 1841   6.273   5.509   3.950
   25CHL1   H25 1842   6.163   5.491   3.952
   25CHL1   C26 1843   6.345   5.373   3.960
   25CHL1  H26A 1844   6.314   5.320   4.052
   25CHL1  H26B 1845   6.320   5.309   3.873
   25CHL1  H26C 1846   6.455   5.388   3.962
   25CHL1   C27 1847   6.309   5.596   4.071
   25CHL1  H27A 1848   6.418   5.613   4.075
   25CHL1  H27B 1849   6.259   5.695   4.064
   25CHL1  H27C 1850   6.277   5.547   4.165
   26CHL1    C3 1851   1.429   5.689   2.508
   26CHL1    H3 1852   1.528   5.640   2.526
   26CHL1    O3 1853   1.413   5.708   2.369
   26CHL1   H3' 1854   1.323   5.739   2.358
   26CHL1    C4 1855   1.317   5.597   2.562
   26CHL1   H4A 1856   1.219   5.640   2.533
   26CHL1   H4B 1857   1.325   5.499   2.510
   26CHL1    C5 1858   1.326   5.582   2.713
   26CHL1    C6 1859   1.342   5.462   2.771
   26CHL1    H6 1860   1.347   5.372   2.708
   26CHL1    C7 1861   1.347   5.443   2.920
   26CHL1   H7A 1862   1.291   5.352   2.950
   26CHL1   H7B 1863   1.452   5.429   2.953
   26CHL1    C8 1864   1.286   5.564   2.995
   26CHL1    H8 1865   1.177   5.564   2.973
   26CHL1   C14 1866   1.307   5.549   3.144
   26CHL1   H14 1867   1.417   5.551   3.161
   26CHL1   C15 1868   1.259   5.418   3.208
   26CHL1  H15A 1869   1.158   5.394   3.169
   26CHL1  H15B 1870   1.328   5.334   3.187
   26CHL1   C16 1871   1.251   5.452   3.358
   26CHL1  H16A 1872   1.151   5.422   3.396
   26CHL1  H16B 1873   1.329   5.398   3.416
   26CHL1   C17 1874   1.271   5.606   3.371
   26CHL1   H17 1875   1.378   5.622   3.395
   26CHL1   C13 1876   1.250   5.662   3.228
   26CHL1   C18 1877   1.097   5.677   3.204
   26CHL1  H18A 1878   1.043   5.584   3.231
   26CHL1  H18B 1879   1.056   5.760   3.264
   26CHL1  H18C 1880   1.075   5.700   3.097
   26CHL1   C12 1881   1.330   5.788   3.188
   26CHL1  H12A 1882   1.295   5.878   3.244
   26CHL1  H12B 1883   1.437   5.772   3.213
   26CHL1   C11 1884   1.317   5.816   3.037
   26CHL1  H11A 1885   1.212   5.851   3.021
   26CHL1  H11B 1886   1.385   5.900   3.010
   26CHL1    C9 1887   1.349   5.694   2.945
   26CHL1    H9 1888   1.458   5.678   2.956
   26CHL1   C10 1889   1.323   5.714   2.792
   26CHL1   C19 1890   1.184   5.782   2.775
   26CHL1  H19A 1891   1.106   5.725   2.829
   26CHL1  H19B 1892   1.186   5.886   2.815
   26CHL1  H19C 1893   1.155   5.790   2.668
   26CHL1    C1 1894   1.436   5.803   2.733
   26CHL1   H1A 1895   1.434   5.902   2.785
   26CHL1   H1B 1896   1.534   5.757   2.756
   26CHL1    C2 1897   1.428   5.824   2.580
   26CHL1   H2A 1898   1.513   5.886   2.546
   26CHL1   H2B 1899   1.334   5.879   2.555
   26CHL1   C20 1900   1.189   5.662   3.488
   26CHL1   H20 1901   1.081   5.643   3.469
   26CHL1   C21 1902   1.210   5.814   3.500
   26CHL1  H21A 1903   1.152   5.855   3.586
   26CHL1  H21B 1904   1.174   5.868   3.410
   26CHL1  H21C 1905   1.318   5.837   3.515
   26CHL1   C22 1906   1.225   5.590   3.621
   26CHL1  H22A 1907   1.200   5.482   3.610
   26CHL1  H22B 1908   1.334   5.599   3.638
   26CHL1   C23 1909   1.151   5.643   3.745
   26CHL1  H23A 1910   1.185   5.747   3.766
   26CHL1  H23B 1911   1.042   5.647   3.726
   26CHL1   C24 1912   1.180   5.561   3.872
   26CHL1  H24A 1913   1.290   5.553   3.885
   26CHL1  H24B 1914   1.140   5.616   3.960
   26CHL1   C25 1915   1.119   5.419   3.875
   26CHL1   H25 1916   1.154   5.363   3.786
   26CHL1   C26 1917   1.168   5.343   3.999
   26CHL1  H26A 1918   1.123   5.242   4.004
   26CHL1  H26B 1919   1.279   5.333   3.998
   26CHL1  H26C 1920   1.139   5.399   4.091
   26CHL1   C27 1921   0.966   5.423   3.872
   26CHL1  H27A 1922   0.923   5.321   3.888
   26CHL1  H27B 1923   0.929   5.490   3.952
   26CHL1  H27C 1924   0.929   5.461   3.774
   27CHL1    C3 1925   7.107   4.702   2.520
   27CHL1    H3 1926   7.001   4.671   2.516
   27CHL1    O3 1927   7.166   4.675   2.393
   27CHL1   H3' 1928   7.100   4.701   2.329
   27CHL1    C4 1929   7.116   4.852   2.552
   27CHL1   H4A 1930   7.223   4.882   2.553
   27CHL1   H4B 1931   7.067   4.908   2.470
   27CHL1    C5 1932   7.053   4.883   2.687
   27CHL1    C6 1933   6.956   4.976   2.699
   27CHL1    H6 1934   6.925   5.033   2.610
   27CHL1    C7 1935   6.889   5.013   2.828
   27CHL1   H7A 1936   6.888   5.123   2.842
   27CHL1   H7B 1937   6.784   4.978   2.825
   27CHL1    C8 1938   6.958   4.950   2.953
   27CHL1    H8 1939   7.047   5.011   2.975
   27CHL1   C14 1940   6.863   4.952   3.072
   27CHL1   H14 1941   6.777   4.888   3.044
   27CHL1   C15 1942   6.803   5.088   3.112
   27CHL1  H15A 1943   6.884   5.164   3.116
   27CHL1  H15B 1944   6.725   5.123   3.042
   27CHL1   C16 1945   6.748   5.064   3.253
   27CHL1  H16A 1946   6.780   5.147   3.319
   27CHL1  H16B 1947   6.637   5.058   3.253
   27CHL1   C17 1948   6.808   4.927   3.303
   27CHL1   H17 1949   6.728   4.852   3.287
   27CHL1   C13 1950   6.918   4.890   3.200
   27CHL1   C18 1951   7.047   4.963   3.243
   27CHL1  H18A 1952   7.094   4.914   3.331
   27CHL1  H18B 1953   7.123   4.965   3.162
   27CHL1  H18C 1954   7.020   5.067   3.270
   27CHL1   C12 1955   6.944   4.741   3.170
   27CHL1  H12A 1956   6.985   4.689   3.259
   27CHL1  H12B 1957   6.847   4.693   3.144
   27CHL1   C11 1958   7.042   4.726   3.053
   27CHL1  H11A 1959   7.142   4.761   3.087
   27CHL1  H11B 1960   7.051   4.618   3.029
   27CHL1    C9 1961   7.000   4.805   2.924
   27CHL1    H9 1962   6.906   4.754   2.891
   27CHL1   C10 1963   7.099   4.795   2.805
   27CHL1   C19 1964   7.239   4.846   2.849
   27CHL1  H19A 1965   7.311   4.845   2.764
   27CHL1  H19B 1966   7.234   4.951   2.887
   27CHL1  H19C 1967   7.282   4.782   2.928
   27CHL1    C1 1968   7.110   4.645   2.763
   27CHL1   H1A 1969   7.166   4.589   2.842
   27CHL1   H1B 1970   7.008   4.603   2.757
   27CHL1    C2 1971   7.180   4.622   2.628
   27CHL1   H2A 1972   7.180   4.514   2.604
   27CHL1   H2B 1973   7.286   4.655   2.634
   27CHL1   C20 1974   6.842   4.933   3.453
   27CHL1   H20 1975   6.921   5.009   3.469
   27CHL1   C21 1976   6.899   4.798   3.503
   27CHL1  H21A 1977   6.992   4.772   3.449
   27CHL1  H21B 1978   6.826   4.715   3.489
   27CHL1  H21C 1979   6.925   4.803   3.610
   27CHL1   C22 1980   6.719   4.980   3.537
   27CHL1  H22A 1981   6.708   5.090   3.526
   27CHL1  H22B 1982   6.627   4.935   3.493
   27CHL1   C23 1983   6.722   4.947   3.688
   27CHL1  H23A 1984   6.729   4.837   3.701
   27CHL1  H23B 1985   6.813   4.993   3.733
   27CHL1   C24 1986   6.597   4.993   3.765
   27CHL1  H24A 1987   6.587   5.104   3.759
   27CHL1  H24B 1988   6.508   4.949   3.715
   27CHL1   C25 1989   6.598   4.948   3.912
   27CHL1   H25 1990   6.630   4.842   3.915
   27CHL1   C26 1991   6.696   5.031   3.997
   27CHL1  H26A 1992   6.666   5.138   3.998
   27CHL1  H26B 1993   6.697   4.994   4.102
   27CHL1  H26C 1994   6.799   5.023   3.956
   27CHL1   C27 1995   6.457   4.955   3.974
   27CHL1  H27A 1996   6.459   4.928   4.081
   27CHL1  H27B 1997   6.415   5.058   3.964
   27CHL1  H27C 1998   6.389   4.884   3.922
   28CHL1    C3 1999   1.247   1.515   2.496
   28CHL1    H3 2000   1.173   1.598   2.504
   28CHL1    O3 2001   1.283   1.498   2.360
   28CHL1   H3' 2002   1.200   1.488   2.313
   28CHL1    C4 2003   1.373   1.554   2.576
   28CHL1   H4A 2004   1.452   1.478   2.558
   28CHL1   H4B 2005   1.412   1.650   2.535
   28CHL1    C5 2006   1.343   1.565   2.724
   28CHL1    C6 2007   1.361   1.680   2.791
   28CHL1    H6 2008   1.402   1.768   2.740
   28CHL1    C7 2009   1.336   1.695   2.939
   28CHL1   H7A 2010   1.416   1.757   2.985
   28CHL1   H7B 2011   1.239   1.747   2.955
   28CHL1    C8 2012   1.331   1.558   3.011
   28CHL1    H8 2013   1.436   1.519   3.013
   28CHL1   C14 2014   1.278   1.573   3.153
   28CHL1   H14 2015   1.170   1.596   3.143
   28CHL1   C15 2016   1.332   1.687   3.241
   28CHL1  H15A 2017   1.440   1.705   3.219
   28CHL1  H15B 2018   1.277   1.781   3.223
   28CHL1   C16 2019   1.314   1.637   3.385
   28CHL1  H16A 2020   1.413   1.622   3.433
   28CHL1  H16B 2021   1.257   1.708   3.450
   28CHL1   C17 2022   1.242   1.499   3.375
   28CHL1   H17 2023   1.133   1.519   3.367
   28CHL1   C13 2024   1.285   1.445   3.236
   28CHL1   C18 2025   1.432   1.395   3.247
   28CHL1  H18A 2026   1.498   1.474   3.289
   28CHL1  H18B 2027   1.439   1.307   3.314
   28CHL1  H18C 2028   1.472   1.364   3.149
   28CHL1   C12 2029   1.192   1.343   3.167
   28CHL1  H12A 2030   1.195   1.244   3.216
   28CHL1  H12B 2031   1.088   1.381   3.175
   28CHL1   C11 2032   1.228   1.324   3.018
   28CHL1  H11A 2033   1.325   1.268   3.019
   28CHL1  H11B 2034   1.152   1.259   2.970
   28CHL1    C9 2035   1.243   1.456   2.937
   28CHL1    H9 2036   1.143   1.503   2.935
   28CHL1   C10 2037   1.283   1.437   2.787
   28CHL1   C19 2038   1.388   1.323   2.779
   28CHL1  H19A 2039   1.428   1.308   2.676
   28CHL1  H19B 2040   1.473   1.343   2.848
   28CHL1  H19C 2041   1.340   1.227   2.807
   28CHL1    C1 2042   1.157   1.399   2.704
   28CHL1   H1A 2043   1.117   1.302   2.742
   28CHL1   H1B 2044   1.079   1.476   2.720
   28CHL1    C2 2045   1.183   1.387   2.552
   28CHL1   H2A 2046   1.087   1.367   2.500
   28CHL1   H2B 2047   1.250   1.300   2.533
   28CHL1   C20 2048   1.265   1.414   3.500
   28CHL1   H20 2049   1.375   1.411   3.520
   28CHL1   C21 2050   1.215   1.271   3.476
   28CHL1  H21A 2051   1.111   1.275   3.435
   28CHL1  H21B 2052   1.213   1.211   3.570
   28CHL1  H21C 2053   1.279   1.216   3.405
   28CHL1   C22 2054   1.196   1.474   3.625
   28CHL1  H22A 2055   1.211   1.584   3.630
   28CHL1  H22B 2056   1.087   1.455   3.616
   28CHL1   C23 2057   1.248   1.413   3.757
   28CHL1  H23A 2058   1.265   1.304   3.743
   28CHL1  H23B 2059   1.346   1.459   3.781
   28CHL1   C24 2060   1.152   1.427   3.876
   28CHL1  H24A 2061   1.154   1.531   3.915
   28CHL1  H24B 2062   1.048   1.406   3.843
   28CHL1   C25 2063   1.188   1.328   3.990
   28CHL1   H25 2064   1.184   1.225   3.950
   28CHL1   C26 2065   1.333   1.350   4.034
   28CHL1  H26A 2066   1.402   1.312   3.955
   28CHL1  H26B 2067   1.354   1.458   4.050
   28CHL1  H26C 2068   1.353   1.294   4.128
   28CHL1   C27 2069   1.093   1.335   4.110
   28CHL1  H27A 2070   0.998   1.278   4.094
   28CHL1  H27B 2071   1.141   1.292   4.201
   28CHL1  H27C 2072   1.064   1.440   4.131
   29CHL1    C3 2073   7.162   6.752   2.496
   29CHL1    H3 2074   7.231   6.669   2.521
   29CHL1    O3 2075   7.155   6.769   2.355
   29CHL1   H3' 2076   7.162   6.679   2.322
   29CHL1    C4 2077   7.020   6.716   2.546
   29CHL1   H4A 2078   6.949   6.787   2.500
   29CHL1   H4B 2079   6.994   6.616   2.505
   29CHL1    C5 2080   7.005   6.719   2.697
   29CHL1    C6 2081   6.949   6.619   2.767
   29CHL1    H6 2082   6.912   6.530   2.713
   29CHL1    C7 2083   6.921   6.625   2.915
   29CHL1   H7A 2084   6.818   6.588   2.936
   29CHL1   H7B 2085   6.992   6.558   2.968
   29CHL1    C8 2086   6.934   6.767   2.975
   29CHL1    H8 2087   6.844   6.826   2.946
   29CHL1   C14 2088   6.943   6.760   3.128
   29CHL1   H14 2089   7.035   6.701   3.148
   29CHL1   C15 2090   6.832   6.688   3.207
   29CHL1  H15A 2091   6.733   6.724   3.171
   29CHL1  H15B 2092   6.837   6.578   3.195
   29CHL1   C16 2093   6.855   6.734   3.353
   29CHL1  H16A 2094   6.761   6.774   3.395
   29CHL1  H16B 2095   6.890   6.650   3.417
   29CHL1   C17 2096   6.963   6.846   3.347
   29CHL1   H17 2097   7.061   6.795   3.364
   29CHL1   C13 2098   6.964   6.893   3.200
   29CHL1   C18 2099   6.845   6.988   3.178
   29CHL1  H18A 2100   6.753   6.951   3.229
   29CHL1  H18B 2101   6.868   7.089   3.218
   29CHL1  H18C 2102   6.823   6.998   3.070
   29CHL1   C12 2103   7.091   6.957   3.144
   29CHL1  H12A 2104   7.112   7.057   3.188
   29CHL1  H12B 2105   7.174   6.887   3.172
   29CHL1   C11 2106   7.089   6.972   2.991
   29CHL1  H11A 2107   7.013   7.048   2.966
   29CHL1  H11B 2108   7.187   7.012   2.957
   29CHL1    C9 2109   7.058   6.838   2.918
   29CHL1    H9 2110   7.144   6.771   2.944
   29CHL1   C10 2111   7.059   6.847   2.763
   29CHL1   C19 2112   6.964   6.959   2.716
   29CHL1  H19A 2113   6.964   6.972   2.606
   29CHL1  H19B 2114   6.859   6.937   2.746
   29CHL1  H19C 2115   6.996   7.057   2.758
   29CHL1    C1 2116   7.204   6.876   2.713
   29CHL1   H1A 2117   7.237   6.974   2.752
   29CHL1   H1B 2118   7.272   6.798   2.753
   29CHL1    C2 2119   7.217   6.880   2.560
   29CHL1   H2A 2120   7.324   6.892   2.531
   29CHL1   H2B 2121   7.163   6.968   2.519
   29CHL1   C20 2122   6.947   6.952   3.456
   29CHL1   H20 2123   6.853   7.008   3.438
   29CHL1   C21 2124   7.064   7.050   3.447
   29CHL1  H21A 2125   7.158   6.996   3.426
   29CHL1  H21B 2126   7.074   7.103   3.544
   29CHL1  H21C 2127   7.047   7.126   3.368
   29CHL1   C22 2128   6.938   6.901   3.602
   29CHL1  H22A 2129   6.917   6.989   3.667
   29CHL1  H22B 2130   6.850   6.834   3.611
   29CHL1   C23 2131   7.065   6.833   3.657
   29CHL1  H23A 2132   7.080   6.737   3.603
   29CHL1  H23B 2133   7.154   6.896   3.637
   29CHL1   C24 2134   7.062   6.808   3.809
   29CHL1  H24A 2135   7.153   6.752   3.838
   29CHL1  H24B 2136   7.063   6.905   3.863
   29CHL1   C25 2137   6.939   6.729   3.859
   29CHL1   H25 2138   6.850   6.794   3.849
   29CHL1   C26 2139   6.917   6.604   3.774
   29CHL1  H26A 2140   6.887   6.629   3.670
   29CHL1  H26B 2141   7.011   6.544   3.770
   29CHL1  H26C 2142   6.836   6.542   3.819
   29CHL1   C27 2143   6.955   6.689   4.006
   29CHL1  H27A 2144   6.865   6.633   4.039
   29CHL1  H27B 2145   7.043   6.624   4.020
   29CHL1  H27C 2146   6.966   6.779   4.070
   30CHL1    C3 2147   7.693   6.250   2.515
   30CHL1    H3 2148   7.762   6.326   2.557
   30CHL1    O3 2149   7.713   6.244   2.375
   30CHL1   H3' 2150   7.642   6.188   2.344
   30CHL1    C4 2151   7.724   6.113   2.576
   30CHL1   H4A 2152   7.657   6.036   2.531
   30CHL1   H4B 2153   7.828   6.084   2.549
   30CHL1    C5 2154   7.703   6.119   2.726
   30CHL1    C6 2155   7.804   6.096   2.811
   30CHL1    H6 2156   7.903   6.067   2.772
   30CHL1    C7 2157   7.786   6.102   2.959
   30CHL1   H7A 2158   7.843   6.023   3.012
   30CHL1   H7B 2159   7.825   6.199   2.996
   30CHL1    C8 2160   7.638   6.090   3.004
   30CHL1    H8 2161   7.599   5.988   2.985
   30CHL1   C14 2162   7.634   6.116   3.154
   30CHL1   H14 2163   7.693   6.210   3.165
   30CHL1   C15 2164   7.701   6.013   3.246
   30CHL1  H15A 2165   7.659   5.912   3.228
   30CHL1  H15B 2166   7.811   6.006   3.231
   30CHL1   C16 2167   7.661   6.064   3.386
   30CHL1  H16A 2168   7.617   5.981   3.444
   30CHL1  H16B 2169   7.749   6.104   3.442
   30CHL1   C17 2170   7.556   6.178   3.361
   30CHL1   H17 2171   7.614   6.272   3.349
   30CHL1   C13 2172   7.500   6.146   3.220
   30CHL1   C18 2173   7.413   6.018   3.229
   30CHL1  H18A 2174   7.310   6.045   3.261
   30CHL1  H18B 2175   7.408   5.969   3.129
   30CHL1  H18C 2176   7.451   5.943   3.301
   30CHL1   C12 2177   7.428   6.255   3.137
   30CHL1  H12A 2178   7.324   6.269   3.174
   30CHL1  H12B 2179   7.484   6.351   3.147
   30CHL1   C11 2180   7.419   6.216   2.988
   30CHL1  H11A 2181   7.357   6.124   2.979
   30CHL1  H11B 2182   7.366   6.297   2.933
   30CHL1    C9 2183   7.558   6.193   2.926
   30CHL1    H9 2184   7.612   6.289   2.941
   30CHL1   C10 2185   7.563   6.165   2.772
   30CHL1   C19 2186   7.463   6.052   2.740
   30CHL1  H19A 2187   7.463   6.027   2.632
   30CHL1  H19B 2188   7.484   5.960   2.798
   30CHL1  H19C 2189   7.359   6.086   2.764
   30CHL1    C1 2190   7.524   6.295   2.696
   30CHL1   H1A 2191   7.416   6.317   2.714
   30CHL1   H1B 2192   7.582   6.380   2.738
   30CHL1    C2 2193   7.549   6.290   2.544
   30CHL1   H2A 2194   7.527   6.390   2.500
   30CHL1   H2B 2195   7.478   6.218   2.498
   30CHL1   C20 2196   7.464   6.205   3.480
   30CHL1   H20 2197   7.399   6.117   3.500
   30CHL1   C21 2198   7.374   6.326   3.450
   30CHL1  H21A 2199   7.435   6.413   3.417
   30CHL1  H21B 2200   7.314   6.356   3.539
   30CHL1  H21C 2201   7.300   6.302   3.371
   30CHL1   C22 2202   7.551   6.231   3.607
   30CHL1  H22A 2203   7.599   6.136   3.636
   30CHL1  H22B 2204   7.632   6.303   3.580
   30CHL1   C23 2205   7.478   6.287   3.730
   30CHL1  H23A 2206   7.433   6.386   3.708
   30CHL1  H23B 2207   7.395   6.218   3.756
   30CHL1   C24 2208   7.572   6.304   3.851
   30CHL1  H24A 2209   7.653   6.229   3.842
   30CHL1  H24B 2210   7.619   6.404   3.846
   30CHL1   C25 2211   7.503   6.286   3.987
   30CHL1   H25 2212   7.452   6.187   3.985
   30CHL1   C26 2213   7.606   6.282   4.101
   30CHL1  H26A 2214   7.658   6.380   4.109
   30CHL1  H26B 2215   7.556   6.261   4.198
   30CHL1  H26C 2216   7.682   6.203   4.083
   30CHL1   C27 2217   7.395   6.392   4.015
   30CHL1  H27A 2218   7.334   6.363   4.103
   30CHL1  H27B 2219   7.443   6.490   4.037
   30CHL1  H27C 2220   7.328   6.404   3.928
   31POPE     N 2221   3.279   3.916   6.273
   31POPE   HN1 2222   3.261   3.973   6.359
   31POPE   HN2 2223   3.243   3.820   6.291
   31POPE   HN3 2224   3.382   3.917   6.262
   31POPE   C12 2225   3.217   3.986   6.155
   31POPE  H12A 2226   3.120   4.029   6.189
   31POPE  H12B 2227   3.199   3.911   6.075
   31POPE   C11 2228   3.309   4.099   6.103
   31POPE  H11A 2229   3.251   4.162   6.032
   31POPE  H11B 2230   3.390   4.053   6.042
   31POPE     P 2231   3.509   4.171   6.254
   31POPE   O13 2232   3.527   4.029   6.293
   31POPE   O14 2233   3.538   4.272   6.358
   31POPE   O11 2234   3.585   4.206   6.119
   31POPE   O12 2235   3.357   4.182   6.210
   31POPE    C1 2236   3.565   4.338   6.064
   31POPE    HA 2237   3.628   4.410   6.121
   31POPE    HB 2238   3.460   4.372   6.073
   31POPE    C2 2239   3.606   4.351   5.914
   31POPE    HS 2240   3.615   4.460   5.891
   31POPE   O21 2241   3.509   4.288   5.827
   31POPE   C21 2242   3.404   4.364   5.801
   31POPE   O22 2243   3.378   4.470   5.855
   31POPE   C22 2244   3.322   4.302   5.688
   31POPE   H2R 2245   3.216   4.332   5.705
   31POPE   H2S 2246   3.330   4.191   5.693
   31POPE    C3 2247   3.745   4.289   5.884
   31POPE    HX 2248   3.737   4.178   5.888
   31POPE    HY 2249   3.813   4.320   5.965
   31POPE   O31 2250   3.797   4.340   5.759
   31POPE   C31 2251   3.773   4.265   5.651
   31POPE   O32 2252   3.720   4.155   5.651
   31POPE   C32 2253   3.821   4.341   5.527
   31POPE   H2X 2254   3.916   4.391   5.555
   31POPE   H2Y 2255   3.745   4.418   5.502
   31POPE   C23 2256   3.368   4.353   5.549
   31POPE   H3R 2257   3.469   4.315   5.525
   31POPE   H3S 2258   3.373   4.464   5.551
   31POPE   C24 2259   3.270   4.314   5.436
   31POPE   H4R 2260   3.293   4.375   5.346
   31POPE   H4S 2261   3.167   4.339   5.468
   31POPE   C25 2262   3.275   4.166   5.396
   31POPE   H5R 2263   3.287   4.103   5.487
   31POPE   H5S 2264   3.364   4.148   5.332
   31POPE   C26 2265   3.148   4.119   5.322
   31POPE   H6R 2266   3.063   4.130   5.393
   31POPE   H6S 2267   3.157   4.011   5.297
   31POPE   C27 2268   3.115   4.198   5.194
   31POPE   H7R 2269   3.124   4.307   5.214
   31POPE   H7S 2270   3.009   4.178   5.168
   31POPE   C28 2271   3.202   4.161   5.073
   31POPE   H8R 2272   3.177   4.057   5.043
   31POPE   H8S 2273   3.308   4.159   5.107
   31POPE   C29 2274   3.180   4.255   4.958
   31POPE   H91 2275   3.079   4.251   4.914
   31POPE  C210 2276   3.269   4.342   4.905
   31POPE  H101 2277   3.238   4.404   4.820
   31POPE  C211 2278   3.412   4.365   4.950
   31POPE  H11R 2279   3.439   4.302   5.037
   31POPE  H11S 2280   3.424   4.471   4.983
   31POPE  C212 2281   3.516   4.338   4.838
   31POPE  H12R 2282   3.617   4.345   4.884
   31POPE  H12S 2283   3.509   4.416   4.760
   31POPE  C213 2284   3.502   4.199   4.773
   31POPE  H13R 2285   3.413   4.197   4.706
   31POPE  H13S 2286   3.484   4.124   4.853
   31POPE  C214 2287   3.626   4.156   4.694
   31POPE  H14R 2288   3.716   4.166   4.758
   31POPE  H14S 2289   3.639   4.224   4.606
   31POPE  C215 2290   3.616   4.010   4.646
   31POPE  H15R 2291   3.526   3.998   4.582
   31POPE  H15S 2292   3.601   3.946   4.736
   31POPE  C216 2293   3.741   3.958   4.573
   31POPE  H16R 2294   3.726   3.850   4.551
   31POPE  H16S 2295   3.828   3.966   4.641
   31POPE  C217 2296   3.773   4.030   4.441
   31POPE  H17R 2297   3.864   3.983   4.397
   31POPE  H17S 2298   3.798   4.136   4.462
   31POPE  C218 2299   3.660   4.024   4.338
   31POPE  H18R 2300   3.570   4.078   4.375
   31POPE  H18S 2301   3.632   3.919   4.317
   31POPE  H18T 2302   3.692   4.072   4.243
   31POPE   C33 2303   3.846   4.252   5.403
   31POPE   H3X 2304   3.900   4.160   5.433
   31POPE   H3Y 2305   3.910   4.307   5.331
   31POPE   C34 2306   3.716   4.215   5.330
   31POPE   H4X 2307   3.666   4.306   5.289
   31POPE   H4Y 2308   3.647   4.170   5.405
   31POPE   C35 2309   3.740   4.115   5.217
   31POPE   H5X 2310   3.839   4.066   5.233
   31POPE   H5Y 2311   3.746   4.167   5.119
   31POPE   C36 2312   3.635   4.003   5.213
   31POPE   H6X 2313   3.562   4.014   5.296
   31POPE   H6Y 2314   3.690   3.908   5.231
   31POPE   C37 2315   3.559   3.995   5.080
   31POPE   H7X 2316   3.632   3.978   4.998
   31POPE   H7Y 2317   3.511   4.093   5.062
   31POPE   C38 2318   3.452   3.885   5.077
   31POPE   H8X 2319   3.374   3.905   5.153
   31POPE   H8Y 2320   3.498   3.787   5.100
   31POPE   C39 2321   3.388   3.872   4.939
   31POPE   H9X 2322   3.468   3.857   4.863
   31POPE   H9Y 2323   3.336   3.967   4.914
   31POPE  C310 2324   3.290   3.754   4.926
   31POPE  H10X 2325   3.209   3.766   5.001
   31POPE  H10Y 2326   3.344   3.660   4.950
   31POPE  C311 2327   3.229   3.744   4.786
   31POPE  H11X 2328   3.159   3.658   4.784
   31POPE  H11Y 2329   3.309   3.724   4.711
   31POPE  C312 2330   3.155   3.872   4.746
   31POPE  H12X 2331   3.226   3.954   4.724
   31POPE  H12Y 2332   3.095   3.904   4.834
   31POPE  C313 2333   3.059   3.851   4.628
   31POPE  H13X 2334   2.980   3.930   4.633
   31POPE  H13Y 2335   3.009   3.753   4.641
   31POPE  C314 2336   3.123   3.856   4.488
   31POPE  H14X 2337   3.041   3.840   4.414
   31POPE  H14Y 2338   3.194   3.772   4.477
   31POPE  C315 2339   3.195   3.988   4.454
   31POPE  H15X 2340   3.216   3.987   4.345
   31POPE  H15Y 2341   3.292   3.990   4.506
   31POPE  C316 2342   3.117   4.115   4.489
   31POPE  H16X 2343   3.111   4.128   4.599
   31POPE  H16Y 2344   3.013   4.109   4.449
   31POPE  H16Z 2345   3.166   4.205   4.446
   32POPE     N 2346   4.530   4.269   6.178
   32POPE   HN1 2347   4.593   4.204   6.229
   32POPE   HN2 2348   4.524   4.355   6.237
   32POPE   HN3 2349   4.435   4.226   6.173
   32POPE   C12 2350   4.592   4.315   6.050
   32POPE  H12A 2351   4.514   4.369   5.991
   32POPE  H12B 2352   4.628   4.227   5.993
   32POPE   C11 2353   4.704   4.412   6.089
   32POPE  H11A 2354   4.748   4.457   5.997
   32POPE  H11B 2355   4.784   4.354   6.140
   32POPE     P 2356   4.738   4.599   6.268
   32POPE   O13 2357   4.828   4.505   6.339
   32POPE   O14 2358   4.645   4.680   6.350
   32POPE   O11 2359   4.816   4.689   6.164
   32POPE   O12 2360   4.646   4.512   6.173
   32POPE    C1 2361   4.745   4.781   6.078
   32POPE    HA 2362   4.778   4.885   6.101
   32POPE    HB 2363   4.636   4.778   6.094
   32POPE    C2 2364   4.772   4.754   5.926
   32POPE    HS 2365   4.784   4.644   5.915
   32POPE   O21 2366   4.891   4.825   5.888
   32POPE   C21 2367   4.958   4.773   5.785
   32POPE   O22 2368   4.936   4.664   5.735
   32POPE   C22 2369   5.063   4.875   5.740
   32POPE   H2R 2370   5.147   4.869   5.812
   32POPE   H2S 2371   5.016   4.975   5.745
   32POPE    C3 2372   4.651   4.799   5.839
   32POPE    HX 2373   4.651   4.911   5.836
   32POPE    HY 2374   4.558   4.770   5.893
   32POPE   O31 2375   4.645   4.736   5.708
   32POPE   C31 2376   4.673   4.814   5.603
   32POPE   O32 2377   4.698   4.933   5.610
   32POPE   C32 2378   4.681   4.731   5.474
   32POPE   H2X 2379   4.739   4.640   5.502
   32POPE   H2Y 2380   4.741   4.789   5.401
   32POPE   C23 2381   5.118   4.852   5.598
   32POPE   H3R 2382   5.172   4.755   5.593
   32POPE   H3S 2383   5.192   4.931   5.574
   32POPE   C24 2384   5.010   4.853   5.489
   32POPE   H4R 2385   4.946   4.944   5.496
   32POPE   H4S 2386   4.946   4.764   5.505
   32POPE   C25 2387   5.069   4.843   5.348
   32POPE   H5R 2388   5.160   4.780   5.355
   32POPE   H5S 2389   5.100   4.944   5.313
   32POPE   C26 2390   4.978   4.777   5.242
   32POPE   H6R 2391   5.033   4.784   5.146
   32POPE   H6S 2392   4.882   4.832   5.231
   32POPE   C27 2393   4.954   4.627   5.271
   32POPE   H7R 2394   4.868   4.611   5.340
   32POPE   H7S 2395   5.044   4.591   5.323
   32POPE   C28 2396   4.939   4.539   5.145
   32POPE   H8R 2397   4.967   4.437   5.177
   32POPE   H8S 2398   5.019   4.573   5.075
   32POPE   C29 2399   4.807   4.525   5.074
   32POPE   H91 2400   4.718   4.517   5.139
   32POPE  C210 2401   4.793   4.518   4.940
   32POPE  H101 2402   4.693   4.506   4.896
   32POPE  C211 2403   4.908   4.526   4.843
   32POPE  H11R 2404   5.002   4.487   4.888
   32POPE  H11S 2405   4.928   4.635   4.833
   32POPE  C212 2406   4.900   4.468   4.700
   32POPE  H12R 2407   4.800   4.479   4.653
   32POPE  H12S 2408   4.918   4.359   4.712
   32POPE  C213 2409   5.010   4.523   4.605
   32POPE  H13R 2410   5.052   4.439   4.545
   32POPE  H13S 2411   5.092   4.561   4.670
   32POPE  C214 2412   4.973   4.634   4.506
   32POPE  H14R 2413   5.055   4.710   4.511
   32POPE  H14S 2414   4.880   4.687   4.535
   32POPE  C215 2415   4.963   4.589   4.359
   32POPE  H15R 2416   5.050   4.524   4.335
   32POPE  H15S 2417   4.970   4.679   4.293
   32POPE  C216 2418   4.832   4.516   4.325
   32POPE  H16R 2419   4.816   4.436   4.401
   32POPE  H16S 2420   4.843   4.467   4.226
   32POPE  C217 2421   4.708   4.607   4.321
   32POPE  H17R 2422   4.704   4.669   4.413
   32POPE  H17S 2423   4.617   4.543   4.322
   32POPE  C218 2424   4.702   4.698   4.198
   32POPE  H18R 2425   4.607   4.755   4.196
   32POPE  H18S 2426   4.710   4.639   4.104
   32POPE  H18T 2427   4.787   4.770   4.199
   32POPE   C33 2428   4.549   4.684   5.407
   32POPE   H3X 2429   4.477   4.651   5.485
   32POPE   H3Y 2430   4.574   4.594   5.346
   32POPE   C34 2431   4.481   4.783   5.310
   32POPE   H4X 2432   4.445   4.871   5.368
   32POPE   H4Y 2433   4.390   4.732   5.271
   32POPE   C35 2434   4.562   4.832   5.187
   32POPE   H5X 2435   4.617   4.747   5.143
   32POPE   H5Y 2436   4.636   4.907   5.220
   32POPE   C36 2437   4.471   4.893   5.077
   32POPE   H6X 2438   4.402   4.967   5.125
   32POPE   H6Y 2439   4.408   4.811   5.035
   32POPE   C37 2440   4.541   4.967   4.960
   32POPE   H7X 2441   4.639   4.917   4.940
   32POPE   H7Y 2442   4.563   5.070   4.994
   32POPE   C38 2443   4.457   4.971   4.829
   32POPE   H8X 2444   4.356   5.009   4.854
   32POPE   H8Y 2445   4.443   4.865   4.796
   32POPE   C39 2446   4.513   5.052   4.708
   32POPE   H9X 2447   4.624   5.057   4.710
   32POPE   H9Y 2448   4.484   5.159   4.717
   32POPE  C310 2449   4.473   4.996   4.569
   32POPE  H10X 2450   4.363   5.008   4.559
   32POPE  H10Y 2451   4.494   4.886   4.564
   32POPE  C311 2452   4.540   5.061   4.444
   32POPE  H11X 2453   4.552   5.170   4.461
   32POPE  H11Y 2454   4.468   5.049   4.360
   32POPE  C312 2455   4.675   5.000   4.399
   32POPE  H12X 2456   4.668   4.890   4.397
   32POPE  H12Y 2457   4.749   5.029   4.476
   32POPE  C313 2458   4.730   5.049   4.262
   32POPE  H13X 2459   4.707   5.158   4.254
   32POPE  H13Y 2460   4.677   4.999   4.178
   32POPE  C314 2461   4.883   5.029   4.242
   32POPE  H14X 2462   4.901   4.936   4.183
   32POPE  H14Y 2463   4.931   5.013   4.341
   32POPE  C315 2464   4.958   5.143   4.170
   32POPE  H15X 2465   4.887   5.226   4.146
   32POPE  H15Y 2466   4.994   5.104   4.073
   32POPE  C316 2467   5.077   5.203   4.246
   32POPE  H16X 2468   5.147   5.253   4.176
   32POPE  H16Y 2469   5.133   5.124   4.301
   32POPE  H16Z 2470   5.045   5.278   4.321
   33POPE     N 2471   2.869   4.246   6.291
   33POPE   HN1 2472   2.913   4.330   6.248
   33POPE   HN2 2473   2.786   4.280   6.344
   33POPE   HN3 2474   2.937   4.204   6.356
   33POPE   C12 2475   2.815   4.145   6.194
   33POPE  H12A 2476   2.779   4.058   6.254
   33POPE  H12B 2477   2.896   4.112   6.125
   33POPE   C11 2478   2.695   4.205   6.120
   33POPE  H11A 2479   2.650   4.126   6.056
   33POPE  H11B 2480   2.729   4.287   6.052
   33POPE     P 2481   2.451   4.230   6.208
   33POPE   O13 2482   2.381   4.307   6.312
   33POPE   O14 2483   2.430   4.083   6.212
   33POPE   O11 2484   2.416   4.282   6.064
   33POPE   O12 2485   2.606   4.257   6.218
   33POPE    C1 2486   2.302   4.233   5.993
   33POPE    HA 2487   2.209   4.279   6.033
   33POPE    HB 2488   2.292   4.123   6.005
   33POPE    C2 2489   2.310   4.264   5.841
   33POPE    HS 2490   2.238   4.198   5.788
   33POPE   O21 2491   2.440   4.237   5.788
   33POPE   C21 2492   2.486   4.116   5.792
   33POPE   O22 2493   2.432   4.017   5.840
   33POPE   C22 2494   2.621   4.115   5.720
   33POPE   H2R 2495   2.609   4.052   5.630
   33POPE   H2S 2496   2.696   4.070   5.788
   33POPE    C3 2497   2.269   4.411   5.809
   33POPE    HX 2498   2.230   4.457   5.902
   33POPE    HY 2499   2.184   4.409   5.737
   33POPE   O31 2500   2.379   4.492   5.763
   33POPE   C31 2501   2.385   4.520   5.634
   33POPE   O32 2502   2.307   4.483   5.549
   33POPE   C32 2503   2.510   4.607   5.611
   33POPE   H2X 2504   2.597   4.543   5.637
   33POPE   H2Y 2505   2.507   4.692   5.682
   33POPE   C23 2506   2.668   4.256   5.674
   33POPE   H3R 2507   2.664   4.327   5.759
   33POPE   H3S 2508   2.598   4.293   5.596
   33POPE   C24 2509   2.811   4.256   5.619
   33POPE   H4R 2510   2.819   4.186   5.533
   33POPE   H4S 2511   2.880   4.221   5.698
   33POPE   C25 2512   2.854   4.397   5.576
   33POPE   H5R 2513   2.965   4.398   5.566
   33POPE   H5S 2514   2.827   4.469   5.656
   33POPE   C26 2515   2.793   4.444   5.443
   33POPE   H6R 2516   2.806   4.554   5.435
   33POPE   H6S 2517   2.684   4.423   5.441
   33POPE   C27 2518   2.860   4.380   5.321
   33POPE   H7R 2519   2.846   4.270   5.323
   33POPE   H7S 2520   2.969   4.400   5.330
   33POPE   C28 2521   2.811   4.437   5.186
   33POPE   H8R 2522   2.884   4.405   5.109
   33POPE   H8S 2523   2.816   4.548   5.189
   33POPE   C29 2524   2.672   4.392   5.151
   33POPE   H91 2525   2.591   4.446   5.202
   33POPE  C210 2526   2.640   4.293   5.066
   33POPE  H101 2527   2.534   4.271   5.046
   33POPE  C211 2528   2.739   4.208   4.990
   33POPE  H11R 2529   2.692   4.111   4.962
   33POPE  H11S 2530   2.826   4.184   5.053
   33POPE  C212 2531   2.791   4.275   4.862
   33POPE  H12R 2532   2.862   4.205   4.813
   33POPE  H12S 2533   2.847   4.368   4.886
   33POPE  C213 2534   2.681   4.309   4.761
   33POPE  H13R 2535   2.624   4.399   4.795
   33POPE  H13S 2536   2.609   4.224   4.757
   33POPE  C214 2537   2.737   4.331   4.620
   33POPE  H14R 2538   2.654   4.342   4.548
   33POPE  H14S 2539   2.794   4.240   4.593
   33POPE  C215 2540   2.835   4.447   4.604
   33POPE  H15R 2541   2.871   4.444   4.499
   33POPE  H15S 2542   2.923   4.432   4.670
   33POPE  C216 2543   2.773   4.584   4.634
   33POPE  H16R 2544   2.732   4.586   4.737
   33POPE  H16S 2545   2.688   4.601   4.563
   33POPE  C217 2546   2.872   4.699   4.618
   33POPE  H17R 2547   2.951   4.690   4.696
   33POPE  H17S 2548   2.819   4.795   4.636
   33POPE  C218 2549   2.937   4.700   4.480
   33POPE  H18R 2550   2.941   4.804   4.440
   33POPE  H18S 2551   2.878   4.638   4.410
   33POPE  H18T 2552   3.039   4.658   4.484
   33POPE   C33 2553   2.525   4.657   5.466
   33POPE   H3X 2554   2.515   4.572   5.395
   33POPE   H3Y 2555   2.627   4.699   5.454
   33POPE   C34 2556   2.425   4.767   5.429
   33POPE   H4X 2557   2.434   4.851   5.502
   33POPE   H4Y 2558   2.322   4.727   5.436
   33POPE   C35 2559   2.446   4.824   5.288
   33POPE   H5X 2560   2.543   4.878   5.285
   33POPE   H5Y 2561   2.366   4.898   5.267
   33POPE   C36 2562   2.446   4.719   5.175
   33POPE   H6X 2563   2.536   4.655   5.184
   33POPE   H6Y 2564   2.456   4.775   5.079
   33POPE   C37 2565   2.320   4.630   5.172
   33POPE   H7X 2566   2.231   4.696   5.168
   33POPE   H7Y 2567   2.315   4.572   5.266
   33POPE   C38 2568   2.315   4.531   5.054
   33POPE   H8X 2569   2.228   4.463   5.067
   33POPE   H8Y 2570   2.407   4.469   5.056
   33POPE   C39 2571   2.305   4.600   4.918
   33POPE   H9X 2572   2.384   4.679   4.916
   33POPE   H9Y 2573   2.207   4.651   4.908
   33POPE  C310 2574   2.328   4.511   4.795
   33POPE  H10X 2575   2.231   4.473   4.757
   33POPE  H10Y 2576   2.390   4.423   4.822
   33POPE  C311 2577   2.401   4.590   4.685
   33POPE  H11X 2578   2.510   4.566   4.685
   33POPE  H11Y 2579   2.394   4.698   4.712
   33POPE  C312 2580   2.344   4.581   4.544
   33POPE  H12X 2581   2.370   4.677   4.494
   33POPE  H12Y 2582   2.233   4.576   4.546
   33POPE  C313 2583   2.404   4.476   4.452
   33POPE  H13X 2584   2.370   4.374   4.479
   33POPE  H13Y 2585   2.515   4.480   4.463
   33POPE  C314 2586   2.371   4.509   4.305
   33POPE  H14X 2587   2.386   4.618   4.288
   33POPE  H14Y 2588   2.264   4.487   4.285
   33POPE  C315 2589   2.461   4.436   4.206
   33POPE  H15X 2590   2.450   4.327   4.222
   33POPE  H15Y 2591   2.567   4.461   4.228
   33POPE  C316 2592   2.429   4.471   4.060
   33POPE  H16X 2593   2.490   4.411   3.991
   33POPE  H16Y 2594   2.448   4.579   4.041
   33POPE  H16Z 2595   2.321   4.453   4.038
   34POPE     N 2596   2.266   3.817   6.038
   34POPE   HN1 2597   2.184   3.814   5.974
   34POPE   HN2 2598   2.227   3.848   6.130
   34POPE   HN3 2599   2.336   3.885   6.004
   34POPE   C12 2600   2.320   3.678   6.059
   34POPE  H12A 2601   2.401   3.685   6.134
   34POPE  H12B 2602   2.361   3.641   5.962
   34POPE   C11 2603   2.208   3.586   6.111
   34POPE  H11A 2604   2.251   3.486   6.132
   34POPE  H11B 2605   2.131   3.575   6.033
   34POPE     P 2606   2.036   3.563   6.303
   34POPE   O13 2607   1.984   3.646   6.414
   34POPE   O14 2608   2.089   3.429   6.338
   34POPE   O11 2609   1.926   3.551   6.190
   34POPE   O12 2610   2.152   3.644   6.229
   34POPE    C1 2611   1.824   3.650   6.169
   34POPE    HA 2612   1.785   3.694   6.263
   34POPE    HB 2613   1.737   3.598   6.122
   34POPE    C2 2614   1.862   3.764   6.069
   34POPE    HS 2615   1.767   3.809   6.033
   34POPE   O21 2616   1.941   3.711   5.960
   34POPE   C21 2617   1.868   3.667   5.860
   34POPE   O22 2618   1.748   3.675   5.848
   34POPE   C22 2619   1.960   3.609   5.756
   34POPE   H2R 2620   2.049   3.674   5.744
   34POPE   H2S 2621   1.903   3.608   5.661
   34POPE    C3 2622   1.942   3.882   6.131
   34POPE    HX 2623   2.008   3.842   6.211
   34POPE    HY 2624   1.871   3.951   6.181
   34POPE   O31 2625   2.024   3.951   6.032
   34POPE   C31 2626   1.948   4.013   5.941
   34POPE   O32 2627   1.829   4.032   5.952
   34POPE   C32 2628   2.029   4.057   5.821
   34POPE   H2X 2629   2.123   3.997   5.814
   34POPE   H2Y 2630   2.051   4.165   5.837
   34POPE   C23 2631   2.000   3.465   5.793
   34POPE   H3R 2632   1.915   3.408   5.836
   34POPE   H3S 2633   2.082   3.462   5.868
   34POPE   C24 2634   2.043   3.390   5.668
   34POPE   H4R 2635   1.967   3.406   5.588
   34POPE   H4S 2636   2.048   3.281   5.686
   34POPE   C25 2637   2.176   3.443   5.619
   34POPE   H5R 2638   2.254   3.398   5.685
   34POPE   H5S 2639   2.184   3.553   5.627
   34POPE   C26 2640   2.200   3.403   5.475
   34POPE   H6R 2641   2.177   3.295   5.466
   34POPE   H6S 2642   2.307   3.423   5.456
   34POPE   C27 2643   2.120   3.478   5.368
   34POPE   H7R 2644   2.011   3.464   5.385
   34POPE   H7S 2645   2.144   3.430   5.271
   34POPE   C28 2646   2.160   3.626   5.354
   34POPE   H8R 2647   2.178   3.645   5.246
   34POPE   H8S 2648   2.258   3.643   5.404
   34POPE   C29 2649   2.055   3.718   5.408
   34POPE   H91 2650   2.046   3.718   5.518
   34POPE  C210 2651   1.971   3.795   5.337
   34POPE  H101 2652   1.896   3.855   5.390
   34POPE  C211 2653   1.965   3.807   5.186
   34POPE  H11R 2654   2.061   3.781   5.136
   34POPE  H11S 2655   1.945   3.913   5.160
   34POPE  C212 2656   1.851   3.721   5.128
   34POPE  H12R 2657   1.824   3.760   5.028
   34POPE  H12S 2658   1.761   3.732   5.192
   34POPE  C213 2659   1.885   3.571   5.114
   34POPE  H13R 2660   1.794   3.516   5.082
   34POPE  H13S 2661   1.911   3.531   5.214
   34POPE  C214 2662   1.998   3.539   5.015
   34POPE  H14R 2663   2.009   3.429   5.009
   34POPE  H14S 2664   2.094   3.580   5.053
   34POPE  C215 2665   1.973   3.593   4.874
   34POPE  H15R 2666   1.958   3.703   4.876
   34POPE  H15S 2667   1.881   3.546   4.832
   34POPE  C216 2668   2.090   3.564   4.779
   34POPE  H16R 2669   2.113   3.455   4.782
   34POPE  H16S 2670   2.181   3.616   4.815
   34POPE  C217 2671   2.058   3.608   4.636
   34POPE  H17R 2672   2.036   3.717   4.636
   34POPE  H17S 2673   1.965   3.557   4.602
   34POPE  C218 2674   2.171   3.578   4.538
   34POPE  H18R 2675   2.267   3.615   4.579
   34POPE  H18S 2676   2.151   3.626   4.440
   34POPE  H18T 2677   2.182   3.468   4.522
   34POPE   C33 2678   1.945   4.045   5.693
   34POPE   H3X 2679   1.867   4.124   5.700
   34POPE   H3Y 2680   1.893   3.946   5.691
   34POPE   C34 2681   2.018   4.063   5.560
   34POPE   H4X 2682   1.943   4.050   5.479
   34POPE   H4Y 2683   2.095   3.984   5.547
   34POPE   C35 2684   2.081   4.201   5.541
   34POPE   H5X 2685   2.177   4.207   5.596
   34POPE   H5Y 2686   2.012   4.278   5.583
   34POPE   C36 2687   2.108   4.237   5.394
   34POPE   H6X 2688   2.170   4.329   5.391
   34POPE   H6Y 2689   2.011   4.259   5.345
   34POPE   C37 2690   2.179   4.128   5.312
   34POPE   H7X 2691   2.193   4.166   5.208
   34POPE   H7Y 2692   2.112   4.040   5.306
   34POPE   C38 2693   2.315   4.084   5.369
   34POPE   H8X 2694   2.307   4.073   5.479
   34POPE   H8Y 2695   2.391   4.162   5.348
   34POPE   C39 2696   2.358   3.949   5.312
   34POPE   H9X 2697   2.277   3.876   5.332
   34POPE   H9Y 2698   2.449   3.913   5.365
   34POPE  C310 2699   2.384   3.952   5.161
   34POPE  H10X 2700   2.476   4.011   5.141
   34POPE  H10Y 2701   2.300   4.002   5.109
   34POPE  C311 2702   2.398   3.811   5.102
   34POPE  H11X 2703   2.301   3.757   5.111
   34POPE  H11Y 2704   2.473   3.754   5.160
   34POPE  C312 2705   2.440   3.813   4.955
   34POPE  H12X 2706   2.464   3.709   4.923
   34POPE  H12Y 2707   2.533   3.874   4.944
   34POPE  C313 2708   2.335   3.871   4.860
   34POPE  H13X 2709   2.315   3.977   4.884
   34POPE  H13Y 2710   2.240   3.815   4.870
   34POPE  C314 2711   2.386   3.861   4.716
   34POPE  H14X 2712   2.416   3.756   4.696
   34POPE  H14Y 2713   2.476   3.926   4.706
   34POPE  C315 2714   2.284   3.903   4.611
   34POPE  H15X 2715   2.271   4.013   4.617
   34POPE  H15Y 2716   2.187   3.857   4.637
   34POPE  C316 2717   2.323   3.862   4.468
   34POPE  H16X 2718   2.233   3.857   4.403
   34POPE  H16Y 2719   2.371   3.762   4.467
   34POPE  H16Z 2720   2.393   3.934   4.422
   35POPE     N 2721   5.204   5.129   5.941
   35POPE   HN1 2722   5.267   5.054   5.906
   35POPE   HN2 2723   5.155   5.177   5.862
   35POPE   HN3 2724   5.264   5.196   5.992
   35POPE   C12 2725   5.109   5.076   6.043
   35POPE  H12A 2726   5.048   4.995   5.998
   35POPE  H12B 2727   5.042   5.159   6.076
   35POPE   C11 2728   5.193   5.026   6.160
   35POPE  H11A 2729   5.261   4.946   6.125
   35POPE  H11B 2730   5.122   4.983   6.234
   35POPE     P 2731   5.330   5.118   6.359
   35POPE   O13 2732   5.227   5.056   6.445
   35POPE   O14 2733   5.392   5.244   6.405
   35POPE   O11 2734   5.440   5.007   6.335
   35POPE   O12 2735   5.268   5.136   6.214
   35POPE    C1 2736   5.577   5.038   6.309
   35POPE    HA 2737   5.641   4.967   6.366
   35POPE    HB 2738   5.607   5.140   6.340
   35POPE    C2 2739   5.612   5.019   6.159
   35POPE    HS 2740   5.722   5.026   6.147
   35POPE   O21 2741   5.543   5.119   6.082
   35POPE   C21 2742   5.610   5.230   6.060
   35POPE   O22 2743   5.728   5.249   6.083
   35POPE   C22 2744   5.516   5.332   5.998
   35POPE   H2R 2745   5.569   5.429   5.994
   35POPE   H2S 2746   5.428   5.342   6.065
   35POPE    C3 2747   5.572   4.879   6.109
   35POPE    HX 2748   5.462   4.864   6.113
   35POPE    HY 2749   5.617   4.804   6.178
   35POPE   O31 2750   5.626   4.857   5.978
   35POPE   C31 2751   5.555   4.898   5.876
   35POPE   O32 2752   5.440   4.939   5.878
   35POPE   C32 2753   5.649   4.897   5.754
   35POPE   H2X 2754   5.622   4.811   5.689
   35POPE   H2Y 2755   5.752   4.880   5.790
   35POPE   C23 2756   5.473   5.291   5.855
   35POPE   H3R 2757   5.439   5.185   5.850
   35POPE   H3S 2758   5.565   5.296   5.793
   35POPE   C24 2759   5.367   5.384   5.796
   35POPE   H4R 2760   5.379   5.482   5.847
   35POPE   H4S 2761   5.262   5.352   5.812
   35POPE   C25 2762   5.394   5.411   5.648
   35POPE   H5R 2763   5.503   5.399   5.629
   35POPE   H5S 2764   5.370   5.518   5.630
   35POPE   C26 2765   5.318   5.334   5.539
   35POPE   H6R 2766   5.211   5.362   5.538
   35POPE   H6S 2767   5.324   5.224   5.554
   35POPE   C27 2768   5.388   5.372   5.408
   35POPE   H7R 2769   5.490   5.330   5.414
   35POPE   H7S 2770   5.399   5.483   5.405
   35POPE   C28 2771   5.321   5.328   5.278
   35POPE   H8R 2772   5.218   5.369   5.273
   35POPE   H8S 2773   5.313   5.217   5.277
   35POPE   C29 2774   5.403   5.377   5.161
   35POPE   H91 2775   5.486   5.444   5.185
   35POPE  C210 2776   5.380   5.345   5.033
   35POPE  H101 2777   5.443   5.386   4.953
   35POPE  C211 2778   5.268   5.254   4.991
   35POPE  H11R 2779   5.183   5.316   4.955
   35POPE  H11S 2780   5.231   5.195   5.076
   35POPE  C212 2781   5.305   5.156   4.879
   35POPE  H12R 2782   5.388   5.087   4.908
   35POPE  H12S 2783   5.342   5.212   4.791
   35POPE  C213 2784   5.181   5.077   4.836
   35POPE  H13R 2785   5.207   5.009   4.753
   35POPE  H13S 2786   5.119   5.159   4.795
   35POPE  C214 2787   5.101   5.000   4.945
   35POPE  H14R 2788   5.077   5.067   5.030
   35POPE  H14S 2789   5.160   4.918   4.990
   35POPE  C215 2790   4.967   4.937   4.899
   35POPE  H15R 2791   4.892   5.019   4.906
   35POPE  H15S 2792   4.933   4.860   4.972
   35POPE  C216 2793   4.962   4.877   4.758
   35POPE  H16R 2794   5.015   4.781   4.749
   35POPE  H16S 2795   5.016   4.944   4.687
   35POPE  C217 2796   4.817   4.876   4.706
   35POPE  H17R 2797   4.819   4.890   4.596
   35POPE  H17S 2798   4.775   4.968   4.753
   35POPE  C218 2799   4.718   4.763   4.737
   35POPE  H18R 2800   4.712   4.744   4.846
   35POPE  H18S 2801   4.745   4.670   4.683
   35POPE  H18T 2802   4.616   4.789   4.701
   35POPE   C33 2803   5.647   5.028   5.673
   35POPE   H3X 2804   5.731   5.026   5.601
   35POPE   H3Y 2805   5.665   5.115   5.740
   35POPE   C34 2806   5.519   5.050   5.590
   35POPE   H4X 2807   5.534   5.143   5.532
   35POPE   H4Y 2808   5.432   5.065   5.657
   35POPE   C35 2809   5.487   4.935   5.493
   35POPE   H5X 2810   5.420   4.861   5.542
   35POPE   H5Y 2811   5.582   4.883   5.470
   35POPE   C36 2812   5.426   4.981   5.359
   35POPE   H6X 2813   5.490   5.063   5.320
   35POPE   H6Y 2814   5.325   5.023   5.377
   35POPE   C37 2815   5.418   4.871   5.252
   35POPE   H7X 2816   5.312   4.842   5.234
   35POPE   H7Y 2817   5.472   4.780   5.286
   35POPE   C38 2818   5.476   4.916   5.117
   35POPE   H8X 2819   5.579   4.953   5.135
   35POPE   H8Y 2820   5.417   5.003   5.082
   35POPE   C39 2821   5.482   4.805   5.008
   35POPE   H9X 2822   5.512   4.708   5.053
   35POPE   H9Y 2823   5.558   4.835   4.933
   35POPE  C310 2824   5.353   4.782   4.931
   35POPE  H10X 2825   5.324   4.879   4.887
   35POPE  H10Y 2826   5.276   4.749   5.004
   35POPE  C311 2827   5.357   4.681   4.816
   35POPE  H11X 2828   5.252   4.665   4.784
   35POPE  H11Y 2829   5.398   4.585   4.853
   35POPE  C312 2830   5.437   4.717   4.690
   35POPE  H12X 2831   5.407   4.644   4.612
   35POPE  H12Y 2832   5.544   4.697   4.712
   35POPE  C313 2833   5.423   4.860   4.634
   35POPE  H13X 2834   5.512   4.880   4.571
   35POPE  H13Y 2835   5.425   4.935   4.716
   35POPE  C314 2836   5.301   4.882   4.542
   35POPE  H14X 2837   5.296   4.990   4.518
   35POPE  H14Y 2838   5.208   4.854   4.596
   35POPE  C315 2839   5.309   4.803   4.411
   35POPE  H15X 2840   5.294   4.695   4.433
   35POPE  H15Y 2841   5.411   4.815   4.368
   35POPE  C316 2842   5.207   4.847   4.306
   35POPE  H16X 2843   5.105   4.852   4.350
   35POPE  H16Y 2844   5.205   4.776   4.220
   35POPE  H16Z 2845   5.233   4.947   4.267
   36POPE     N 2846   2.004   4.435   6.364
   36POPE   HN1 2847   1.976   4.372   6.442
   36POPE   HN2 2848   2.077   4.502   6.396
   36POPE   HN3 2849   1.920   4.488   6.335
   36POPE   C12 2850   2.045   4.353   6.245
   36POPE  H12A 2851   2.147   4.312   6.266
   36POPE  H12B 2852   2.051   4.422   6.159
   36POPE   C11 2853   1.946   4.237   6.215
   36POPE  H11A 2854   1.995   4.143   6.250
   36POPE  H11B 2855   1.934   4.228   6.105
   36POPE     P 2856   1.707   4.344   6.223
   36POPE   O13 2857   1.773   4.477   6.210
   36POPE   O14 2858   1.593   4.334   6.315
   36POPE   O11 2859   1.676   4.282   6.081
   36POPE   O12 2860   1.820   4.247   6.281
   36POPE    C1 2861   1.584   4.171   6.069
   36POPE    HA 2862   1.504   4.176   6.145
   36POPE    HB 2863   1.638   4.075   6.083
   36POPE    C2 2864   1.509   4.164   5.931
   36POPE    HS 2865   1.445   4.073   5.933
   36POPE   O21 2866   1.599   4.163   5.818
   36POPE   C21 2867   1.601   4.053   5.744
   36POPE   O22 2868   1.580   3.940   5.784
   36POPE   C22 2869   1.635   4.089   5.598
   36POPE   H2R 2870   1.718   4.022   5.566
   36POPE   H2S 2871   1.669   4.195   5.594
   36POPE    C3 2872   1.414   4.287   5.915
   36POPE    HX 2873   1.337   4.279   5.995
   36POPE    HY 2874   1.360   4.279   5.818
   36POPE   O31 2875   1.483   4.413   5.930
   36POPE   C31 2876   1.555   4.449   5.825
   36POPE   O32 2877   1.547   4.401   5.713
   36POPE   C32 2878   1.642   4.569   5.861
   36POPE   H2X 2879   1.705   4.542   5.948
   36POPE   H2Y 2880   1.575   4.652   5.890
   36POPE   C23 2881   1.519   4.069   5.497
   36POPE   H3R 2882   1.431   4.126   5.533
   36POPE   H3S 2883   1.490   3.962   5.496
   36POPE   C24 2884   1.552   4.115   5.354
   36POPE   H4R 2885   1.573   4.223   5.353
   36POPE   H4S 2886   1.461   4.098   5.292
   36POPE   C25 2887   1.668   4.038   5.288
   36POPE   H5R 2888   1.666   3.934   5.327
   36POPE   H5S 2889   1.765   4.084   5.318
   36POPE   C26 2890   1.658   4.030   5.135
   36POPE   H6R 2891   1.559   3.988   5.108
   36POPE   H6S 2892   1.734   3.958   5.098
   36POPE   C27 2893   1.681   4.161   5.059
   36POPE   H7R 2894   1.778   4.205   5.090
   36POPE   H7S 2895   1.602   4.235   5.086
   36POPE   C28 2896   1.684   4.141   4.906
   36POPE   H8R 2897   1.772   4.077   4.882
   36POPE   H8S 2898   1.702   4.238   4.856
   36POPE   C29 2899   1.555   4.083   4.852
   36POPE   H91 2900   1.465   4.140   4.879
   36POPE  C210 2901   1.541   3.971   4.778
   36POPE  H101 2902   1.440   3.942   4.747
   36POPE  C211 2903   1.650   3.878   4.730
   36POPE  H11R 2904   1.636   3.779   4.777
   36POPE  H11S 2905   1.752   3.912   4.760
   36POPE  C212 2906   1.650   3.859   4.577
   36POPE  H12R 2907   1.555   3.810   4.547
   36POPE  H12S 2908   1.732   3.790   4.549
   36POPE  C213 2909   1.663   3.989   4.495
   36POPE  H13R 2910   1.579   4.056   4.521
   36POPE  H13S 2911   1.655   3.964   4.387
   36POPE  C214 2912   1.793   4.068   4.518
   36POPE  H14R 2913   1.879   4.009   4.480
   36POPE  H14S 2914   1.807   4.082   4.627
   36POPE  C215 2915   1.790   4.208   4.452
   36POPE  H15R 2916   1.875   4.266   4.493
   36POPE  H15S 2917   1.697   4.260   4.483
   36POPE  C216 2918   1.799   4.206   4.299
   36POPE  H16R 2919   1.702   4.170   4.259
   36POPE  H16S 2920   1.876   4.133   4.265
   36POPE  C217 2921   1.831   4.344   4.238
   36POPE  H17R 2922   1.782   4.423   4.297
   36POPE  H17S 2923   1.786   4.348   4.136
   36POPE  C218 2924   1.979   4.376   4.216
   36POPE  H18R 2925   2.027   4.298   4.153
   36POPE  H18S 2926   2.034   4.383   4.312
   36POPE  H18T 2927   1.990   4.474   4.163
   36POPE   C33 2928   1.729   4.612   5.741
   36POPE   H3X 2929   1.777   4.709   5.765
   36POPE   H3Y 2930   1.666   4.628   5.651
   36POPE   C34 2931   1.840   4.510   5.708
   36POPE   H4X 2932   1.795   4.412   5.682
   36POPE   H4Y 2933   1.900   4.496   5.800
   36POPE   C35 2934   1.931   4.556   5.595
   36POPE   H5X 2935   2.024   4.495   5.594
   36POPE   H5Y 2936   1.960   4.661   5.617
   36POPE   C36 2937   1.870   4.550   5.454
   36POPE   H6X 2938   1.792   4.629   5.446
   36POPE   H6Y 2939   1.820   4.452   5.437
   36POPE   C37 2940   1.977   4.572   5.347
   36POPE   H7X 2941   2.032   4.477   5.327
   36POPE   H7Y 2942   2.053   4.643   5.387
   36POPE   C38 2943   1.928   4.630   5.214
   36POPE   H8X 2944   2.019   4.660   5.158
   36POPE   H8Y 2945   1.867   4.721   5.231
   36POPE   C39 2946   1.852   4.534   5.122
   36POPE   H9X 2947   1.749   4.518   5.161
   36POPE   H9Y 2948   1.905   4.436   5.121
   36POPE  C310 2949   1.849   4.591   4.980
   36POPE  H10X 2950   1.954   4.611   4.948
   36POPE  H10Y 2951   1.796   4.688   4.979
   36POPE  C311 2952   1.785   4.496   4.880
   36POPE  H11X 2953   1.677   4.485   4.904
   36POPE  H11Y 2954   1.832   4.396   4.891
   36POPE  C312 2955   1.800   4.541   4.734
   36POPE  H12X 2956   1.770   4.647   4.723
   36POPE  H12Y 2957   1.732   4.480   4.671
   36POPE  C313 2958   1.943   4.521   4.682
   36POPE  H13X 2959   1.973   4.416   4.702
   36POPE  H13Y 2960   2.015   4.587   4.736
   36POPE  C314 2961   1.955   4.546   4.531
   36POPE  H14X 2962   1.870   4.497   4.479
   36POPE  H14Y 2963   2.048   4.496   4.494
   36POPE  C315 2964   1.960   4.694   4.492
   36POPE  H15X 2965   2.042   4.743   4.549
   36POPE  H15Y 2966   1.865   4.742   4.523
   36POPE  C316 2967   1.982   4.715   4.343
   36POPE  H16X 2968   1.903   4.666   4.284
   36POPE  H16Y 2969   2.080   4.673   4.312
   36POPE  H16Z 2970   1.982   4.824   4.318
   37POPE     N 2971   1.306   2.859   6.303
   37POPE   HN1 2972   1.295   2.951   6.350
   37POPE   HN2 2973   1.236   2.789   6.336
   37POPE   HN3 2974   1.403   2.827   6.319
   37POPE   C12 2975   1.296   2.876   6.154
   37POPE  H12A 2976   1.201   2.929   6.131
   37POPE  H12B 2977   1.295   2.774   6.110
   37POPE   C11 2978   1.417   2.954   6.102
   37POPE  H11A 2979   1.403   3.060   6.130
   37POPE  H11B 2980   1.420   2.947   5.991
   37POPE     P 2981   1.674   2.975   6.143
   37POPE   O13 2982   1.738   2.938   6.016
   37POPE   O14 2983   1.752   2.950   6.267
   37POPE   O11 2984   1.625   3.126   6.143
   37POPE   O12 2985   1.536   2.898   6.159
   37POPE    C1 2986   1.679   3.226   6.057
   37POPE    HA 2987   1.782   3.203   6.023
   37POPE    HB 2988   1.685   3.320   6.116
   37POPE    C2 2989   1.591   3.256   5.932
   37POPE    HS 2990   1.484   3.250   5.963
   37POPE   O21 2991   1.623   3.160   5.829
   37POPE   C21 2992   1.526   3.135   5.742
   37POPE   O22 2993   1.417   3.189   5.742
   37POPE   C22 2994   1.564   3.022   5.644
   37POPE   H2R 2995   1.490   3.027   5.562
   37POPE   H2S 2996   1.548   2.926   5.699
   37POPE    C3 2997   1.620   3.404   5.891
   37POPE    HX 2998   1.729   3.422   5.905
   37POPE    HY 2999   1.570   3.468   5.967
   37POPE   O31 3000   1.577   3.449   5.761
   37POPE   C31 3001   1.661   3.430   5.662
   37POPE   O32 3002   1.751   3.349   5.659
   37POPE   C32 3003   1.634   3.530   5.550
   37POPE   H2X 3004   1.731   3.562   5.505
   37POPE   H2Y 3005   1.584   3.619   5.594
   37POPE   C23 3006   1.708   3.023   5.584
   37POPE   H3R 3007   1.781   3.012   5.667
   37POPE   H3S 3008   1.727   3.121   5.535
   37POPE   C24 3009   1.731   2.910   5.480
   37POPE   H4R 3010   1.664   2.928   5.393
   37POPE   H4S 3011   1.699   2.814   5.527
   37POPE   C25 3012   1.877   2.892   5.430
   37POPE   H5R 3013   1.940   2.873   5.519
   37POPE   H5S 3014   1.912   2.987   5.383
   37POPE   C26 3015   1.895   2.775   5.329
   37POPE   H6R 3016   1.854   2.803   5.230
   37POPE   H6S 3017   1.833   2.691   5.368
   37POPE   C27 3018   2.040   2.717   5.313
   37POPE   H7R 3019   2.033   2.612   5.278
   37POPE   H7S 3020   2.084   2.715   5.414
   37POPE   C28 3021   2.138   2.795   5.219
   37POPE   H8R 3022   2.240   2.789   5.263
   37POPE   H8S 3023   2.101   2.899   5.234
   37POPE   C29 3024   2.145   2.759   5.070
   37POPE   H91 3025   2.068   2.685   5.045
   37POPE  C210 3026   2.225   2.800   4.966
   37POPE  H101 3027   2.204   2.749   4.870
   37POPE  C211 3028   2.341   2.899   4.947
   37POPE  H11R 3029   2.432   2.836   4.932
   37POPE  H11S 3030   2.365   2.951   5.042
   37POPE  C212 3031   2.365   2.999   4.825
   37POPE  H12R 3032   2.376   2.937   4.734
   37POPE  H12S 3033   2.464   3.044   4.844
   37POPE  C213 3034   2.270   3.118   4.791
   37POPE  H13R 3035   2.267   3.190   4.876
   37POPE  H13S 3036   2.167   3.080   4.775
   37POPE  C214 3037   2.295   3.195   4.658
   37POPE  H14R 3038   2.384   3.151   4.608
   37POPE  H14S 3039   2.318   3.301   4.682
   37POPE  C215 3040   2.182   3.192   4.551
   37POPE  H15R 3041   2.173   3.089   4.511
   37POPE  H15S 3042   2.215   3.255   4.466
   37POPE  C216 3043   2.041   3.239   4.593
   37POPE  H16R 3044   2.043   3.347   4.622
   37POPE  H16S 3045   2.008   3.183   4.682
   37POPE  C217 3046   1.932   3.220   4.486
   37POPE  H17R 3047   1.858   3.147   4.526
   37POPE  H17S 3048   1.977   3.174   4.395
   37POPE  C218 3049   1.857   3.348   4.447
   37POPE  H18R 3050   1.809   3.393   4.536
   37POPE  H18S 3051   1.778   3.326   4.372
   37POPE  H18T 3052   1.927   3.423   4.404
   37POPE   C33 3053   1.544   3.464   5.445
   37POPE   H3X 3054   1.490   3.540   5.385
   37POPE   H3Y 3055   1.469   3.405   5.502
   37POPE   C34 3056   1.617   3.368   5.350
   37POPE   H4X 3057   1.705   3.323   5.400
   37POPE   H4Y 3058   1.653   3.423   5.261
   37POPE   C35 3059   1.522   3.254   5.309
   37POPE   H5X 3060   1.427   3.298   5.272
   37POPE   H5Y 3061   1.498   3.195   5.400
   37POPE   C36 3062   1.578   3.161   5.202
   37POPE   H6X 3063   1.519   3.067   5.205
   37POPE   H6Y 3064   1.683   3.135   5.226
   37POPE   C37 3065   1.569   3.224   5.062
   37POPE   H7X 3066   1.630   3.317   5.062
   37POPE   H7Y 3067   1.464   3.252   5.041
   37POPE   C38 3068   1.620   3.132   4.951
   37POPE   H8X 3069   1.722   3.099   4.980
   37POPE   H8Y 3070   1.631   3.188   4.855
   37POPE   C39 3071   1.537   3.005   4.929
   37POPE   H9X 3072   1.491   2.970   5.024
   37POPE   H9Y 3073   1.608   2.925   4.899
   37POPE  C310 3074   1.432   3.020   4.820
   37POPE  H10X 3075   1.435   3.121   4.774
   37POPE  H10Y 3076   1.331   3.007   4.865
   37POPE  C311 3077   1.453   2.914   4.711
   37POPE  H11X 3078   1.360   2.900   4.652
   37POPE  H11Y 3079   1.472   2.818   4.765
   37POPE  C312 3080   1.571   2.944   4.617
   37POPE  H12X 3081   1.627   2.850   4.599
   37POPE  H12Y 3082   1.642   3.015   4.665
   37POPE  C313 3083   1.523   2.999   4.482
   37POPE  H13X 3084   1.486   3.103   4.496
   37POPE  H13Y 3085   1.437   2.937   4.448
   37POPE  C314 3086   1.631   2.994   4.374
   37POPE  H14X 3087   1.677   2.892   4.375
   37POPE  H14Y 3088   1.711   3.067   4.397
   37POPE  C315 3089   1.577   3.022   4.233
   37POPE  H15X 3090   1.509   2.939   4.203
   37POPE  H15Y 3091   1.662   3.023   4.162
   37POPE  C316 3092   1.502   3.155   4.220
   37POPE  H16X 3093   1.567   3.239   4.252
   37POPE  H16Y 3094   1.411   3.155   4.282
   37POPE  H16Z 3095   1.472   3.173   4.114
   38POPE     N 3096   6.311   4.763   6.091
   38POPE   HN1 3097   6.356   4.812   6.011
   38POPE   HN2 3098   6.288   4.832   6.165
   38POPE   HN3 3099   6.369   4.689   6.134
   38POPE   C12 3100   6.173   4.715   6.058
   38POPE  H12A 3101   6.153   4.626   6.122
   38POPE  H12B 3102   6.167   4.687   5.951
   38POPE   C11 3103   6.077   4.829   6.096
   38POPE  H11A 3104   5.974   4.789   6.106
   38POPE  H11B 3105   6.077   4.905   6.016
   38POPE     P 3106   6.058   5.018   6.275
   38POPE   O13 3107   6.140   5.054   6.393
   38POPE   O14 3108   5.915   4.991   6.300
   38POPE   O11 3109   6.084   5.117   6.154
   38POPE   O12 3110   6.122   4.885   6.220
   38POPE    C1 3111   6.118   5.254   6.183
   38POPE    HA 3112   6.202   5.259   6.255
   38POPE    HB 3113   6.031   5.306   6.228
   38POPE    C2 3114   6.164   5.339   6.060
   38POPE    HS 3115   6.201   5.434   6.103
   38POPE   O21 3116   6.054   5.364   5.971
   38POPE   C21 3117   6.078   5.463   5.885
   38POPE   O22 3118   6.173   5.541   5.894
   38POPE   C22 3119   5.974   5.465   5.772
   38POPE   H2R 3120   5.895   5.538   5.801
   38POPE   H2S 3121   5.930   5.364   5.765
   38POPE    C3 3122   6.284   5.273   5.984
   38POPE    HX 3123   6.366   5.268   6.059
   38POPE    HY 3124   6.321   5.341   5.905
   38POPE   O31 3125   6.262   5.138   5.935
   38POPE   C31 3126   6.206   5.136   5.814
   38POPE   O32 3127   6.175   5.234   5.749
   38POPE   C32 3128   6.203   4.993   5.761
   38POPE   H2X 3129   6.204   4.922   5.846
   38POPE   H2Y 3130   6.294   4.977   5.699
   38POPE   C23 3131   6.038   5.505   5.636
   38POPE   H3R 3132   6.121   5.435   5.612
   38POPE   H3S 3133   6.082   5.606   5.645
   38POPE   C24 3134   5.940   5.505   5.518
   38POPE   H4R 3135   5.987   5.558   5.432
   38POPE   H4S 3136   5.851   5.563   5.547
   38POPE   C25 3137   5.895   5.367   5.469
   38POPE   H5R 3138   5.870   5.301   5.555
   38POPE   H5S 3139   5.978   5.319   5.412
   38POPE   C26 3140   5.770   5.379   5.379
   38POPE   H6R 3141   5.790   5.453   5.299
   38POPE   H6S 3142   5.689   5.420   5.443
   38POPE   C27 3143   5.719   5.247   5.318
   38POPE   H7R 3144   5.617   5.262   5.277
   38POPE   H7S 3145   5.712   5.170   5.397
   38POPE   C28 3146   5.803   5.193   5.201
   38POPE   H8R 3147   5.763   5.095   5.170
   38POPE   H8S 3148   5.905   5.175   5.241
   38POPE   C29 3149   5.802   5.288   5.085
   38POPE   H91 3150   5.703   5.311   5.042
   38POPE  C210 3151   5.911   5.346   5.031
   38POPE  H101 3152   5.900   5.413   4.945
   38POPE  C211 3153   6.052   5.323   5.079
   38POPE  H11R 3154   6.060   5.342   5.188
   38POPE  H11S 3155   6.119   5.398   5.030
   38POPE  C212 3156   6.106   5.181   5.049
   38POPE  H12R 3157   6.052   5.108   5.113
   38POPE  H12S 3158   6.213   5.176   5.077
   38POPE  C213 3159   6.090   5.135   4.904
   38POPE  H13R 3160   5.981   5.133   4.880
   38POPE  H13S 3161   6.127   5.031   4.892
   38POPE  C214 3162   6.161   5.226   4.804
   38POPE  H14R 3163   6.271   5.221   4.819
   38POPE  H14S 3164   6.129   5.330   4.825
   38POPE  C215 3165   6.126   5.199   4.658
   38POPE  H15R 3166   6.164   5.286   4.599
   38POPE  H15S 3167   6.016   5.197   4.645
   38POPE  C216 3168   6.189   5.076   4.594
   38POPE  H16R 3169   6.138   4.983   4.630
   38POPE  H16S 3170   6.295   5.068   4.624
   38POPE  C217 3171   6.179   5.086   4.442
   38POPE  H17R 3172   6.243   5.171   4.408
   38POPE  H17S 3173   6.075   5.111   4.412
   38POPE  C218 3174   6.223   4.958   4.372
   38POPE  H18R 3175   6.138   4.886   4.373
   38POPE  H18S 3176   6.310   4.913   4.423
   38POPE  H18T 3177   6.251   4.978   4.266
   38POPE   C33 3178   6.078   4.967   5.673
   38POPE   H3X 3179   5.985   4.998   5.725
   38POPE   H3Y 3180   6.073   4.857   5.658
   38POPE   C34 3181   6.086   5.036   5.536
   38POPE   H4X 3182   6.183   5.012   5.486
   38POPE   H4Y 3183   6.085   5.146   5.547
   38POPE   C35 3184   5.972   4.998   5.442
   38POPE   H5X 3185   6.008   5.007   5.337
   38POPE   H5Y 3186   5.890   5.072   5.455
   38POPE   C36 3187   5.912   4.859   5.463
   38POPE   H6X 3188   5.862   4.855   5.562
   38POPE   H6Y 3189   5.991   4.780   5.463
   38POPE   C37 3190   5.809   4.827   5.356
   38POPE   H7X 3191   5.742   4.914   5.340
   38POPE   H7Y 3192   5.746   4.743   5.392
   38POPE   C38 3193   5.872   4.787   5.223
   38POPE   H8X 3194   5.955   4.715   5.239
   38POPE   H8Y 3195   5.911   4.878   5.174
   38POPE   C39 3196   5.769   4.717   5.138
   38POPE   H9X 3197   5.675   4.772   5.157
   38POPE   H9Y 3198   5.750   4.613   5.173
   38POPE  C310 3199   5.801   4.714   4.989
   38POPE  H10X 3200   5.711   4.670   4.940
   38POPE  H10Y 3201   5.887   4.649   4.966
   38POPE  C311 3202   5.827   4.850   4.923
   38POPE  H11X 3203   5.931   4.883   4.944
   38POPE  H11Y 3204   5.758   4.927   4.962
   38POPE  C312 3205   5.807   4.832   4.773
   38POPE  H12X 3206   5.698   4.818   4.754
   38POPE  H12Y 3207   5.859   4.739   4.742
   38POPE  C313 3208   5.858   4.947   4.687
   38POPE  H13X 3209   5.954   4.982   4.730
   38POPE  H13Y 3210   5.785   5.031   4.690
   38POPE  C314 3211   5.882   4.899   4.544
   38POPE  H14X 3212   5.962   4.822   4.545
   38POPE  H14Y 3213   5.918   4.985   4.482
   38POPE  C315 3214   5.757   4.841   4.479
   38POPE  H15X 3215   5.684   4.924   4.469
   38POPE  H15Y 3216   5.710   4.764   4.543
   38POPE  C316 3217   5.784   4.780   4.343
   38POPE  H16X 3218   5.833   4.680   4.355
   38POPE  H16Y 3219   5.854   4.845   4.286
   38POPE  H16Z 3220   5.690   4.767   4.285
   39POPE     N 3221   1.805   1.973   6.086
   39POPE   HN1 3222   1.771   1.974   5.987
   39POPE   HN2 3223   1.887   2.037   6.090
   39POPE   HN3 3224   1.836   1.876   6.106
   39POPE   C12 3225   1.694   2.023   6.175
   39POPE  H12A 3226   1.721   1.996   6.279
   39POPE  H12B 3227   1.601   1.970   6.146
   39POPE   C11 3228   1.673   2.176   6.166
   39POPE  H11A 3229   1.576   2.198   6.214
   39POPE  H11B 3230   1.663   2.209   6.060
   39POPE     P 3231   1.894   2.321   6.165
   39POPE   O13 3232   1.977   2.382   6.271
   39POPE   O14 3233   1.837   2.411   6.064
   39POPE   O11 3234   1.969   2.199   6.096
   39POPE   O12 3235   1.774   2.248   6.238
   39POPE    C1 3236   2.111   2.188   6.117
   39POPE    HA 3237   2.131   2.117   6.201
   39POPE    HB 3238   2.160   2.283   6.147
   39POPE    C2 3239   2.190   2.138   5.992
   39POPE    HS 3240   2.298   2.148   6.015
   39POPE   O21 3241   2.157   2.213   5.873
   39POPE   C21 3242   2.196   2.338   5.868
   39POPE   O22 3243   2.255   2.399   5.956
   39POPE   C22 3244   2.166   2.396   5.729
   39POPE   H2R 3245   2.247   2.468   5.706
   39POPE   H2S 3246   2.070   2.453   5.735
   39POPE    C3 3247   2.163   1.988   5.964
   39POPE    HX 3248   2.174   1.932   6.060
   39POPE    HY 3249   2.242   1.949   5.896
   39POPE   O31 3250   2.029   1.968   5.914
   39POPE   C31 3251   2.019   1.969   5.782
   39POPE   O32 3252   2.110   1.954   5.702
   39POPE   C32 3253   1.873   2.000   5.749
   39POPE   H2X 3254   1.856   2.108   5.765
   39POPE   H2Y 3255   1.810   1.942   5.820
   39POPE   C23 3256   2.156   2.291   5.615
   39POPE   H3R 3257   2.059   2.239   5.622
   39POPE   H3S 3258   2.235   2.214   5.626
   39POPE   C24 3259   2.171   2.353   5.475
   39POPE   H4R 3260   2.277   2.383   5.460
   39POPE   H4S 3261   2.109   2.445   5.467
   39POPE   C25 3262   2.129   2.256   5.364
   39POPE   H5R 3263   2.018   2.247   5.365
   39POPE   H5S 3264   2.172   2.156   5.384
   39POPE   C26 3265   2.174   2.301   5.224
   39POPE   H6R 3266   2.286   2.298   5.225
   39POPE   H6S 3267   2.141   2.405   5.204
   39POPE   C27 3268   2.125   2.208   5.113
   39POPE   H7R 3269   2.014   2.212   5.108
   39POPE   H7S 3270   2.154   2.104   5.139
   39POPE   C28 3271   2.181   2.241   4.973
   39POPE   H8R 3272   2.177   2.147   4.914
   39POPE   H8S 3273   2.288   2.267   4.984
   39POPE   C29 3274   2.104   2.351   4.904
   39POPE   H91 3275   2.115   2.451   4.948
   39POPE  C210 3276   2.024   2.334   4.797
   39POPE  H101 3277   1.974   2.422   4.754
   39POPE  C211 3278   1.997   2.203   4.727
   39POPE  H11R 3279   1.897   2.206   4.678
   39POPE  H11S 3280   1.992   2.120   4.800
   39POPE  C212 3281   2.103   2.166   4.622
   39POPE  H12R 3282   2.079   2.065   4.581
   39POPE  H12S 3283   2.202   2.157   4.673
   39POPE  C213 3284   2.117   2.266   4.506
   39POPE  H13R 3285   2.199   2.232   4.440
   39POPE  H13S 3286   2.146   2.365   4.548
   39POPE  C214 3287   1.989   2.283   4.423
   39POPE  H14R 3288   2.002   2.370   4.355
   39POPE  H14S 3289   1.903   2.307   4.489
   39POPE  C215 3290   1.954   2.160   4.337
   39POPE  H15R 3291   1.949   2.070   4.401
   39POPE  H15S 3292   2.035   2.142   4.263
   39POPE  C216 3293   1.821   2.180   4.264
   39POPE  H16R 3294   1.810   2.288   4.240
   39POPE  H16S 3295   1.740   2.151   4.334
   39POPE  C217 3296   1.803   2.105   4.132
   39POPE  H17R 3297   1.698   2.071   4.125
   39POPE  H17S 3298   1.868   2.014   4.132
   39POPE  C218 3299   1.830   2.190   4.008
   39POPE  H18R 3300   1.820   2.129   3.916
   39POPE  H18S 3301   1.933   2.232   4.013
   39POPE  H18T 3302   1.759   2.275   4.002
   39POPE   C33 3303   1.831   1.958   5.608
   39POPE   H3X 3304   1.720   1.956   5.612
   39POPE   H3Y 3305   1.864   1.855   5.583
   39POPE   C34 3306   1.870   2.056   5.496
   39POPE   H4X 3307   1.975   2.035   5.467
   39POPE   H4Y 3308   1.864   2.161   5.531
   39POPE   C35 3309   1.776   2.038   5.377
   39POPE   H5X 3310   1.680   2.089   5.400
   39POPE   H5Y 3311   1.757   1.929   5.366
   39POPE   C36 3312   1.827   2.090   5.243
   39POPE   H6X 3313   1.933   2.059   5.231
   39POPE   H6Y 3314   1.822   2.201   5.242
   39POPE   C37 3315   1.746   2.031   5.127
   39POPE   H7X 3316   1.639   2.025   5.156
   39POPE   H7Y 3317   1.782   1.928   5.108
   39POPE   C38 3318   1.751   2.110   4.997
   39POPE   H8X 3319   1.711   2.045   4.916
   39POPE   H8Y 3320   1.857   2.135   4.971
   39POPE   C39 3321   1.666   2.238   5.000
   39POPE   H9X 3322   1.718   2.316   5.059
   39POPE   H9Y 3323   1.568   2.217   5.048
   39POPE  C310 3324   1.641   2.285   4.857
   39POPE  H10X 3325   1.579   2.208   4.805
   39POPE  H10Y 3326   1.738   2.292   4.803
   39POPE  C311 3327   1.570   2.420   4.846
   39POPE  H11X 3328   1.643   2.500   4.873
   39POPE  H11Y 3329   1.486   2.426   4.918
   39POPE  C312 3330   1.519   2.438   4.703
   39POPE  H12X 3331   1.419   2.394   4.689
   39POPE  H12Y 3332   1.587   2.380   4.637
   39POPE  C313 3333   1.519   2.584   4.657
   39POPE  H13X 3334   1.591   2.643   4.717
   39POPE  H13Y 3335   1.417   2.626   4.671
   39POPE  C314 3336   1.562   2.595   4.511
   39POPE  H14X 3337   1.538   2.696   4.472
   39POPE  H14Y 3338   1.502   2.523   4.450
   39POPE  C315 3339   1.712   2.569   4.495
   39POPE  H15X 3340   1.743   2.475   4.544
   39POPE  H15Y 3341   1.767   2.652   4.545
   39POPE  C316 3342   1.753   2.563   4.349
   39POPE  H16X 3343   1.690   2.633   4.290
   39POPE  H16Y 3344   1.739   2.462   4.306
   39POPE  H16Z 3345   1.861   2.588   4.339
   40POPE     N 3346   6.730   4.142   6.323
   40POPE   HN1 3347   6.732   4.074   6.401
   40POPE   HN2 3348   6.816   4.125   6.266
   40POPE   HN3 3349   6.738   4.238   6.362
   40POPE   C12 3350   6.608   4.128   6.236
   40POPE  H12A 3351   6.601   4.021   6.204
   40POPE  H12B 3352   6.624   4.190   6.145
   40POPE   C11 3353   6.479   4.169   6.308
   40POPE  H11A 3354   6.489   4.272   6.350
   40POPE  H11B 3355   6.463   4.101   6.394
   40POPE     P 3356   6.320   4.279   6.132
   40POPE   O13 3357   6.431   4.317   6.042
   40POPE   O14 3358   6.280   4.387   6.227
   40POPE   O11 3359   6.192   4.229   6.057
   40POPE   O12 3360   6.367   4.156   6.221
   40POPE    C1 3361   6.161   4.092   6.025
   40POPE    HA 3362   6.050   4.081   6.023
   40POPE    HB 3363   6.200   4.022   6.101
   40POPE    C2 3364   6.213   4.049   5.886
   40POPE    HS 3365   6.167   3.950   5.862
   40POPE   O21 3366   6.354   4.031   5.901
   40POPE   C21 3367   6.425   4.019   5.792
   40POPE   O22 3368   6.387   3.979   5.684
   40POPE   C22 3369   6.568   4.060   5.826
   40POPE   H2R 3370   6.628   3.968   5.839
   40POPE   H2S 3371   6.569   4.116   5.922
   40POPE    C3 3372   6.171   4.148   5.772
   40POPE    HX 3373   6.062   4.167   5.785
   40POPE    HY 3374   6.184   4.099   5.673
   40POPE   O31 3375   6.246   4.270   5.778
   40POPE   C31 3376   6.205   4.362   5.692
   40POPE   O32 3377   6.116   4.349   5.611
   40POPE   C32 3378   6.287   4.489   5.717
   40POPE   H2X 3379   6.392   4.468   5.687
   40POPE   H2Y 3380   6.285   4.507   5.827
   40POPE   C23 3381   6.630   4.146   5.716
   40POPE   H3R 3382   6.589   4.122   5.616
   40POPE   H3S 3383   6.739   4.124   5.710
   40POPE   C24 3384   6.610   4.294   5.747
   40POPE   H4R 3385   6.661   4.319   5.843
   40POPE   H4S 3386   6.502   4.314   5.760
   40POPE   C25 3387   6.668   4.374   5.631
   40POPE   H5R 3388   6.599   4.364   5.545
   40POPE   H5S 3389   6.764   4.325   5.602
   40POPE   C26 3390   6.699   4.521   5.660
   40POPE   H6R 3391   6.749   4.531   5.759
   40POPE   H6S 3392   6.604   4.579   5.661
   40POPE   C27 3393   6.794   4.578   5.553
   40POPE   H7R 3394   6.898   4.547   5.578
   40POPE   H7S 3395   6.791   4.689   5.556
   40POPE   C28 3396   6.764   4.526   5.412
   40POPE   H8R 3397   6.778   4.416   5.408
   40POPE   H8S 3398   6.838   4.564   5.339
   40POPE   C29 3399   6.626   4.564   5.365
   40POPE   H91 3400   6.576   4.646   5.418
   40POPE  C210 3401   6.566   4.503   5.263
   40POPE  H101 3402   6.463   4.531   5.234
   40POPE  C211 3403   6.630   4.393   5.184
   40POPE  H11R 3404   6.606   4.295   5.231
   40POPE  H11S 3405   6.741   4.402   5.181
   40POPE  C212 3406   6.581   4.392   5.040
   40POPE  H12R 3407   6.601   4.489   4.989
   40POPE  H12S 3408   6.472   4.374   5.039
   40POPE  C213 3409   6.650   4.279   4.963
   40POPE  H13R 3410   6.664   4.196   5.036
   40POPE  H13S 3411   6.750   4.311   4.928
   40POPE  C214 3412   6.566   4.224   4.849
   40POPE  H14R 3413   6.461   4.211   4.885
   40POPE  H14S 3414   6.604   4.123   4.823
   40POPE  C215 3415   6.567   4.311   4.724
   40POPE  H15R 3416   6.660   4.293   4.666
   40POPE  H15S 3417   6.567   4.418   4.752
   40POPE  C216 3418   6.444   4.285   4.634
   40POPE  H16R 3419   6.459   4.340   4.539
   40POPE  H16S 3420   6.355   4.329   4.684
   40POPE  C217 3421   6.413   4.137   4.606
   40POPE  H17R 3422   6.337   4.133   4.525
   40POPE  H17S 3423   6.367   4.092   4.696
   40POPE  C218 3424   6.535   4.053   4.567
   40POPE  H18R 3425   6.568   3.992   4.653
   40POPE  H18S 3426   6.620   4.118   4.536
   40POPE  H18T 3427   6.510   3.986   4.482
   40POPE   C33 3428   6.237   4.613   5.642
   40POPE   H3X 3429   6.279   4.702   5.693
   40POPE   H3Y 3430   6.127   4.622   5.646
   40POPE   C34 3431   6.285   4.618   5.496
   40POPE   H4X 3432   6.201   4.584   5.432
   40POPE   H4Y 3433   6.369   4.547   5.479
   40POPE   C35 3434   6.331   4.760   5.458
   40POPE   H5X 3435   6.427   4.784   5.508
   40POPE   H5Y 3436   6.254   4.828   5.501
   40POPE   C36 3437   6.340   4.793   5.308
   40POPE   H6X 3438   6.424   4.739   5.258
   40POPE   H6Y 3439   6.359   4.902   5.297
   40POPE   C37 3440   6.209   4.761   5.236
   40POPE   H7X 3441   6.129   4.800   5.302
   40POPE   H7Y 3442   6.195   4.651   5.228
   40POPE   C38 3443   6.189   4.826   5.099
   40POPE   H8X 3444   6.191   4.937   5.110
   40POPE   H8Y 3445   6.089   4.797   5.062
   40POPE   C39 3446   6.289   4.783   4.992
   40POPE   H9X 3447   6.390   4.826   5.012
   40POPE   H9Y 3448   6.254   4.826   4.895
   40POPE  C310 3449   6.299   4.631   4.981
   40POPE  H10X 3450   6.198   4.586   4.989
   40POPE  H10Y 3451   6.358   4.594   5.067
   40POPE  C311 3452   6.365   4.585   4.852
   40POPE  H11X 3453   6.387   4.476   4.861
   40POPE  H11Y 3454   6.462   4.639   4.838
   40POPE  C312 3455   6.279   4.603   4.727
   40POPE  H12X 3456   6.343   4.573   4.642
   40POPE  H12Y 3457   6.251   4.709   4.712
   40POPE  C313 3458   6.152   4.515   4.728
   40POPE  H13X 3459   6.080   4.554   4.804
   40POPE  H13Y 3460   6.180   4.413   4.761
   40POPE  C314 3461   6.079   4.503   4.593
   40POPE  H14X 3462   6.009   4.589   4.580
   40POPE  H14Y 3463   6.018   4.410   4.596
   40POPE  C315 3464   6.169   4.493   4.470
   40POPE  H15X 3465   6.116   4.432   4.393
   40POPE  H15Y 3466   6.261   4.436   4.495
   40POPE  C316 3467   6.204   4.629   4.410
   40POPE  H16X 3468   6.114   4.672   4.361
   40POPE  H16Y 3469   6.284   4.619   4.334
   40POPE  H16Z 3470   6.238   4.700   4.488
   41POPE     N 3471   4.527   1.174   6.378
   41POPE   HN1 3472   4.463   1.092   6.373
   41POPE   HN2 3473   4.571   1.185   6.471
   41POPE   HN3 3474   4.475   1.260   6.351
   41POPE   C12 3475   4.628   1.154   6.269
   41POPE  H12A 3476   4.702   1.079   6.304
   41POPE  H12B 3477   4.678   1.251   6.250
   41POPE   C11 3478   4.553   1.103   6.146
   41POPE  H11A 3479   4.625   1.092   6.062
   41POPE  H11B 3480   4.479   1.179   6.113
   41POPE     P 3481   4.551   0.844   6.138
   41POPE   O13 3482   4.459   0.735   6.177
   41POPE   O14 3483   4.688   0.844   6.196
   41POPE   O11 3484   4.560   0.861   5.981
   41POPE   O12 3485   4.485   0.982   6.180
   41POPE    C1 3486   4.444   0.900   5.906
   41POPE    HA 3487   4.389   0.984   5.952
   41POPE    HB 3488   4.374   0.813   5.898
   41POPE    C2 3489   4.479   0.942   5.760
   41POPE    HS 3490   4.384   0.965   5.709
   41POPE   O21 3491   4.547   0.831   5.700
   41POPE   C21 3492   4.525   0.811   5.573
   41POPE   O22 3493   4.463   0.883   5.497
   41POPE   C22 3494   4.589   0.677   5.540
   41POPE   H2R 3495   4.540   0.601   5.605
   41POPE   H2S 3496   4.696   0.684   5.570
   41POPE    C3 3497   4.570   1.068   5.755
   41POPE    HX 3498   4.670   1.037   5.792
   41POPE    HY 3499   4.529   1.144   5.826
   41POPE   O31 3500   4.571   1.125   5.622
   41POPE   C31 3501   4.688   1.170   5.577
   41POPE   O32 3502   4.791   1.177   5.642
   41POPE   C32 3503   4.675   1.208   5.430
   41POPE   H2X 3504   4.567   1.218   5.404
   41POPE   H2Y 3505   4.717   1.125   5.370
   41POPE   C23 3506   4.575   0.635   5.393
   41POPE   H3R 3507   4.479   0.673   5.353
   41POPE   H3S 3508   4.572   0.524   5.386
   41POPE   C24 3509   4.690   0.683   5.305
   41POPE   H4R 3510   4.767   0.603   5.302
   41POPE   H4S 3511   4.736   0.775   5.347
   41POPE   C25 3512   4.649   0.709   5.162
   41POPE   H5R 3513   4.590   0.624   5.120
   41POPE   H5S 3514   4.742   0.716   5.102
   41POPE   C26 3515   4.572   0.840   5.146
   41POPE   H6R 3516   4.606   0.915   5.220
   41POPE   H6S 3517   4.463   0.823   5.163
   41POPE   C27 3518   4.597   0.892   5.006
   41POPE   H7R 3519   4.597   0.805   4.938
   41POPE   H7S 3520   4.700   0.935   5.006
   41POPE   C28 3521   4.493   0.991   4.952
   41POPE   H8R 3522   4.398   0.980   5.008
   41POPE   H8S 3523   4.473   0.955   4.849
   41POPE   C29 3524   4.538   1.134   4.949
   41POPE   H91 3525   4.537   1.187   5.045
   41POPE  C210 3526   4.581   1.198   4.838
   41POPE  H101 3527   4.609   1.304   4.844
   41POPE  C211 3528   4.591   1.138   4.700
   41POPE  H11R 3529   4.493   1.151   4.651
   41POPE  H11S 3530   4.608   1.028   4.703
   41POPE  C212 3531   4.702   1.200   4.612
   41POPE  H12R 3532   4.801   1.184   4.658
   41POPE  H12S 3533   4.684   1.310   4.608
   41POPE  C213 3534   4.702   1.145   4.469
   41POPE  H13R 3535   4.597   1.127   4.438
   41POPE  H13S 3536   4.753   1.046   4.466
   41POPE  C214 3537   4.766   1.241   4.368
   41POPE  H14R 3538   4.877   1.235   4.373
   41POPE  H14S 3539   4.738   1.344   4.398
   41POPE  C215 3540   4.718   1.224   4.222
   41POPE  H15R 3541   4.725   1.323   4.173
   41POPE  H15S 3542   4.612   1.192   4.218
   41POPE  C216 3543   4.802   1.126   4.139
   41POPE  H16R 3544   4.908   1.142   4.168
   41POPE  H16S 3545   4.791   1.152   4.032
   41POPE  C217 3546   4.763   0.979   4.156
   41POPE  H17R 3547   4.663   0.962   4.111
   41POPE  H17S 3548   4.754   0.956   4.265
   41POPE  C218 3549   4.865   0.884   4.093
   41POPE  H18R 3550   4.873   0.902   3.984
   41POPE  H18S 3551   4.835   0.778   4.109
   41POPE  H18T 3552   4.965   0.897   4.141
   41POPE   C33 3553   4.749   1.340   5.397
   41POPE   H3X 3554   4.854   1.335   5.434
   41POPE   H3Y 3555   4.700   1.424   5.450
   41POPE   C34 3556   4.754   1.372   5.247
   41POPE   H4X 3557   4.783   1.478   5.234
   41POPE   H4Y 3558   4.653   1.359   5.202
   41POPE   C35 3559   4.856   1.286   5.172
   41POPE   H5X 3560   4.825   1.179   5.178
   41POPE   H5Y 3561   4.955   1.295   5.220
   41POPE   C36 3562   4.869   1.327   5.025
   41POPE   H6X 3563   4.891   1.435   5.017
   41POPE   H6Y 3564   4.771   1.312   4.976
   41POPE   C37 3565   4.974   1.245   4.949
   41POPE   H7X 3566   5.076   1.260   4.991
   41POPE   H7Y 3567   4.977   1.280   4.843
   41POPE   C38 3568   4.941   1.096   4.951
   41POPE   H8X 3569   4.833   1.087   4.928
   41POPE   H8Y 3570   4.958   1.053   5.052
   41POPE   C39 3571   5.022   1.017   4.849
   41POPE   H9X 3572   5.127   1.007   4.884
   41POPE   H9Y 3573   5.023   1.071   4.752
   41POPE  C310 3574   4.963   0.878   4.824
   41POPE  H10X 3575   4.956   0.820   4.919
   41POPE  H10Y 3576   5.037   0.829   4.757
   41POPE  C311 3577   4.827   0.879   4.752
   41POPE  H11X 3578   4.833   0.943   4.662
   41POPE  H11Y 3579   4.751   0.929   4.816
   41POPE  C312 3580   4.776   0.740   4.713
   41POPE  H12X 3581   4.763   0.676   4.803
   41POPE  H12Y 3582   4.854   0.693   4.649
   41POPE  C313 3583   4.644   0.746   4.633
   41POPE  H13X 3584   4.649   0.833   4.564
   41POPE  H13Y 3585   4.558   0.762   4.702
   41POPE  C314 3586   4.624   0.619   4.549
   41POPE  H14X 3587   4.599   0.532   4.613
   41POPE  H14Y 3588   4.722   0.599   4.502
   41POPE  C315 3589   4.523   0.633   4.434
   41POPE  H15X 3590   4.553   0.558   4.358
   41POPE  H15Y 3591   4.530   0.733   4.387
   41POPE  C316 3592   4.378   0.599   4.466
   41POPE  H16X 3593   4.372   0.515   4.538
   41POPE  H16Y 3594   4.325   0.569   4.372
   41POPE  H16Z 3595   4.325   0.687   4.507
   42POPE     N 3596   0.638   4.623   6.104
   42POPE   HN1 3597   0.579   4.659   6.182
   42POPE   HN2 3598   0.713   4.692   6.084
   42POPE   HN3 3599   0.580   4.609   6.019
   42POPE   C12 3600   0.712   4.498   6.145
   42POPE  H12A 3601   0.775   4.467   6.059
   42POPE  H12B 3602   0.638   4.418   6.166
   42POPE   C11 3603   0.798   4.530   6.268
   42POPE  H11A 3604   0.732   4.547   6.356
   42POPE  H11B 3605   0.854   4.625   6.253
   42POPE     P 3606   1.034   4.421   6.241
   42POPE   O13 3607   1.075   4.281   6.219
   42POPE   O14 3608   1.118   4.506   6.328
   42POPE   O11 3609   1.010   4.491   6.101
   42POPE   O12 3610   0.886   4.421   6.298
   42POPE    C1 3611   1.114   4.501   6.004
   42POPE    HA 3612   1.097   4.430   5.921
   42POPE    HB 3613   1.214   4.479   6.047
   42POPE    C2 3614   1.123   4.645   5.944
   42POPE    HS 3615   1.125   4.718   6.028
   42POPE   O21 3616   1.016   4.672   5.852
   42POPE   C21 3617   0.902   4.713   5.902
   42POPE   O22 3618   0.874   4.732   6.019
   42POPE   C22 3619   0.797   4.735   5.793
   42POPE   H2R 3620   0.812   4.838   5.753
   42POPE   H2S 3621   0.697   4.731   5.840
   42POPE    C3 3622   1.258   4.660   5.867
   42POPE    HX 3623   1.341   4.638   5.938
   42POPE    HY 3624   1.265   4.767   5.839
   42POPE   O31 3625   1.264   4.569   5.753
   42POPE   C31 3626   1.347   4.610   5.658
   42POPE   O32 3627   1.417   4.710   5.665
   42POPE   C32 3628   1.342   4.522   5.533
   42POPE   H2X 3629   1.446   4.508   5.499
   42POPE   H2Y 3630   1.287   4.581   5.456
   42POPE   C23 3631   0.803   4.641   5.672
   42POPE   H3R 3632   0.906   4.638   5.628
   42POPE   H3S 3633   0.736   4.685   5.595
   42POPE   C24 3634   0.756   4.498   5.700
   42POPE   H4R 3635   0.654   4.498   5.743
   42POPE   H4S 3636   0.825   4.451   5.773
   42POPE   C25 3637   0.757   4.413   5.572
   42POPE   H5R 3638   0.736   4.307   5.599
   42POPE   H5S 3639   0.859   4.418   5.527
   42POPE   C26 3640   0.655   4.458   5.465
   42POPE   H6R 3641   0.570   4.508   5.516
   42POPE   H6S 3642   0.615   4.369   5.412
   42POPE   C27 3643   0.715   4.553   5.361
   42POPE   H7R 3644   0.770   4.495   5.283
   42POPE   H7S 3645   0.791   4.620   5.408
   42POPE   C28 3646   0.610   4.643   5.294
   42POPE   H8R 3647   0.665   4.723   5.240
   42POPE   H8S 3648   0.549   4.693   5.372
   42POPE   C29 3649   0.522   4.571   5.197
   42POPE   H91 3650   0.440   4.516   5.246
   42POPE  C210 3651   0.534   4.565   5.063
   42POPE  H101 3652   0.456   4.514   5.005
   42POPE  C211 3653   0.641   4.629   4.978
   42POPE  H11R 3654   0.665   4.731   5.015
   42POPE  H11S 3655   0.604   4.641   4.874
   42POPE  C212 3656   0.772   4.548   4.975
   42POPE  H12R 3657   0.752   4.444   4.940
   42POPE  H12S 3658   0.814   4.542   5.078
   42POPE  C213 3659   0.875   4.614   4.884
   42POPE  H13R 3660   0.887   4.720   4.914
   42POPE  H13S 3661   0.836   4.616   4.780
   42POPE  C214 3662   1.013   4.545   4.886
   42POPE  H14R 3663   1.001   4.435   4.873
   42POPE  H14S 3664   1.060   4.561   4.985
   42POPE  C215 3665   1.104   4.598   4.774
   42POPE  H15R 3666   1.109   4.709   4.785
   42POPE  H15S 3667   1.058   4.578   4.675
   42POPE  C216 3668   1.247   4.542   4.779
   42POPE  H16R 3669   1.272   4.517   4.884
   42POPE  H16S 3670   1.317   4.621   4.746
   42POPE  C217 3671   1.269   4.420   4.688
   42POPE  H17R 3672   1.191   4.343   4.711
   42POPE  H17S 3673   1.367   4.375   4.714
   42POPE  C218 3674   1.267   4.452   4.538
   42POPE  H18R 3675   1.292   4.362   4.479
   42POPE  H18S 3676   1.342   4.531   4.515
   42POPE  H18T 3677   1.167   4.489   4.506
   42POPE   C33 3678   1.271   4.385   5.539
   42POPE   H3X 3679   1.170   4.394   5.586
   42POPE   H3Y 3680   1.332   4.316   5.601
   42POPE   C34 3681   1.258   4.328   5.397
   42POPE   H4X 3682   1.277   4.219   5.399
   42POPE   H4Y 3683   1.338   4.373   5.333
   42POPE   C35 3684   1.121   4.353   5.331
   42POPE   H5X 3685   1.132   4.339   5.221
   42POPE   H5Y 3686   1.086   4.456   5.349
   42POPE   C36 3687   1.019   4.250   5.381
   42POPE   H6X 3688   0.996   4.269   5.489
   42POPE   H6Y 3689   1.069   4.151   5.375
   42POPE   C37 3690   0.892   4.239   5.296
   42POPE   H7X 3691   0.881   4.331   5.234
   42POPE   H7Y 3692   0.803   4.229   5.362
   42POPE   C38 3693   0.899   4.117   5.205
   42POPE   H8X 3694   0.892   4.026   5.269
   42POPE   H8Y 3695   0.998   4.118   5.155
   42POPE   C39 3696   0.790   4.110   5.099
   42POPE   H9X 3697   0.774   4.211   5.055
   42POPE   H9Y 3698   0.695   4.076   5.145
   42POPE  C310 3699   0.831   4.013   4.986
   42POPE  H10X 3700   0.855   3.913   5.028
   42POPE  H10Y 3701   0.924   4.052   4.940
   42POPE  C311 3702   0.721   4.000   4.879
   42POPE  H11X 3703   0.646   4.080   4.895
   42POPE  H11Y 3704   0.669   3.903   4.894
   42POPE  C312 3705   0.772   4.010   4.735
   42POPE  H12X 3706   0.691   3.984   4.664
   42POPE  H12Y 3707   0.852   3.933   4.724
   42POPE  C313 3708   0.831   4.147   4.695
   42POPE  H13X 3709   0.898   4.136   4.608
   42POPE  H13Y 3710   0.892   4.187   4.779
   42POPE  C314 3711   0.723   4.249   4.657
   42POPE  H14X 3712   0.647   4.244   4.737
   42POPE  H14Y 3713   0.674   4.222   4.561
   42POPE  C315 3714   0.773   4.393   4.654
   42POPE  H15X 3715   0.849   4.401   4.735
   42POPE  H15Y 3716   0.689   4.461   4.680
   42POPE  C316 3717   0.836   4.441   4.524
   42POPE  H16X 3718   0.877   4.544   4.534
   42POPE  H16Y 3719   0.758   4.443   4.444
   42POPE  H16Z 3720   0.918   4.373   4.493
   43POPE     N 3721   5.707   1.346   6.208
   43POPE   HN1 3722   5.665   1.291   6.285
   43POPE   HN2 3723   5.716   1.445   6.240
   43POPE   HN3 3724   5.647   1.342   6.123
   43POPE   C12 3725   5.844   1.296   6.179
   43POPE  H12A 3726   5.835   1.198   6.127
   43POPE  H12B 3727   5.897   1.281   6.276
   43POPE   C11 3728   5.916   1.400   6.094
   43POPE  H11A 3729   5.855   1.424   6.004
   43POPE  H11B 3730   6.012   1.355   6.059
   43POPE     P 3731   6.075   1.556   6.226
   43POPE   O13 3732   6.105   1.450   6.325
   43POPE   O14 3733   6.071   1.696   6.275
   43POPE   O11 3734   6.172   1.540   6.102
   43POPE   O12 3735   5.933   1.521   6.166
   43POPE    C1 3736   6.154   1.603   5.975
   43POPE    HA 3737   6.218   1.694   5.971
   43POPE    HB 3738   6.049   1.636   5.958
   43POPE    C2 3739   6.197   1.511   5.856
   43POPE    HS 3740   6.202   1.572   5.764
   43POPE   O21 3741   6.103   1.403   5.840
   43POPE   C21 3742   5.990   1.425   5.774
   43POPE   O22 3743   5.953   1.532   5.729
   43POPE   C22 3744   5.912   1.291   5.768
   43POPE   H2R 3745   5.866   1.273   5.867
   43POPE   H2S 3746   5.990   1.213   5.753
   43POPE    C3 3747   6.343   1.455   5.884
   43POPE    HX 3748   6.335   1.396   5.978
   43POPE    HY 3749   6.410   1.540   5.906
   43POPE   O31 3750   6.402   1.368   5.783
   43POPE   C31 3751   6.443   1.426   5.670
   43POPE   O32 3752   6.426   1.544   5.645
   43POPE   C32 3753   6.515   1.319   5.582
   43POPE   H2X 3754   6.450   1.229   5.582
   43POPE   H2Y 3755   6.605   1.286   5.637
   43POPE   C23 3756   5.803   1.267   5.660
   43POPE   H3R 3757   5.835   1.304   5.560
   43POPE   H3S 3758   5.713   1.325   5.689
   43POPE   C24 3759   5.764   1.116   5.648
   43POPE   H4R 3760   5.674   1.102   5.585
   43POPE   H4S 3761   5.737   1.080   5.749
   43POPE   C25 3762   5.870   1.021   5.587
   43POPE   H5R 3763   5.844   0.916   5.613
   43POPE   H5S 3764   5.966   1.046   5.636
   43POPE   C26 3765   5.883   1.036   5.435
   43POPE   H6R 3766   5.909   1.142   5.416
   43POPE   H6S 3767   5.780   1.025   5.396
   43POPE   C27 3768   5.965   0.930   5.354
   43POPE   H7R 3769   5.933   0.941   5.248
   43POPE   H7S 3770   5.926   0.834   5.393
   43POPE   C28 3771   6.121   0.909   5.348
   43POPE   H8R 3772   6.134   0.814   5.293
   43POPE   H8S 3773   6.155   0.888   5.452
   43POPE   C29 3774   6.216   1.009   5.286
   43POPE   H91 3775   6.209   1.108   5.333
   43POPE  C210 3776   6.307   1.002   5.188
   43POPE  H101 3777   6.365   1.093   5.164
   43POPE  C211 3778   6.345   0.883   5.105
   43POPE  H11R 3779   6.260   0.812   5.100
   43POPE  H11S 3780   6.431   0.832   5.153
   43POPE  C212 3781   6.387   0.915   4.960
   43POPE  H12R 3782   6.300   0.941   4.897
   43POPE  H12S 3783   6.430   0.819   4.924
   43POPE  C213 3784   6.498   1.018   4.941
   43POPE  H13R 3785   6.562   1.017   5.032
   43POPE  H13S 3786   6.456   1.120   4.931
   43POPE  C214 3787   6.589   0.983   4.821
   43POPE  H14R 3788   6.621   0.877   4.829
   43POPE  H14S 3789   6.680   1.046   4.829
   43POPE  C215 3790   6.533   1.011   4.681
   43POPE  H15R 3791   6.426   1.039   4.686
   43POPE  H15S 3792   6.543   0.920   4.618
   43POPE  C216 3793   6.614   1.123   4.614
   43POPE  H16R 3794   6.723   1.104   4.628
   43POPE  H16S 3795   6.590   1.218   4.667
   43POPE  C217 3796   6.589   1.140   4.464
   43POPE  H17R 3797   6.582   1.249   4.445
   43POPE  H17S 3798   6.493   1.093   4.434
   43POPE  C218 3799   6.699   1.086   4.376
   43POPE  H18R 3800   6.799   1.110   4.418
   43POPE  H18S 3801   6.692   1.132   4.275
   43POPE  H18T 3802   6.691   0.975   4.364
   43POPE   C33 3803   6.555   1.349   5.434
   43POPE   H3X 3804   6.524   1.263   5.371
   43POPE   H3Y 3805   6.665   1.356   5.427
   43POPE   C34 3806   6.495   1.478   5.377
   43POPE   H4X 3807   6.542   1.563   5.431
   43POPE   H4Y 3808   6.387   1.481   5.399
   43POPE   C35 3809   6.515   1.503   5.227
   43POPE   H5X 3810   6.621   1.526   5.204
   43POPE   H5Y 3811   6.455   1.596   5.211
   43POPE   C36 3812   6.459   1.401   5.126
   43POPE   H6X 3813   6.375   1.347   5.173
   43POPE   H6Y 3814   6.536   1.325   5.101
   43POPE   C37 3815   6.411   1.476   5.000
   43POPE   H7X 3816   6.493   1.546   4.972
   43POPE   H7Y 3817   6.323   1.538   5.026
   43POPE   C38 3818   6.379   1.397   4.872
   43POPE   H8X 3819   6.287   1.336   4.888
   43POPE   H8Y 3820   6.462   1.328   4.846
   43POPE   C39 3821   6.359   1.497   4.756
   43POPE   H9X 3822   6.452   1.556   4.750
   43POPE   H9Y 3823   6.275   1.565   4.781
   43POPE  C310 3824   6.332   1.438   4.616
   43POPE  H10X 3825   6.229   1.398   4.617
   43POPE  H10Y 3826   6.404   1.355   4.596
   43POPE  C311 3827   6.341   1.542   4.502
   43POPE  H11X 3828   6.446   1.577   4.491
   43POPE  H11Y 3829   6.278   1.628   4.534
   43POPE  C312 3830   6.288   1.497   4.364
   43POPE  H12X 3831   6.275   1.586   4.299
   43POPE  H12Y 3832   6.187   1.452   4.378
   43POPE  C313 3833   6.381   1.399   4.294
   43POPE  H13X 3834   6.416   1.329   4.373
   43POPE  H13Y 3835   6.471   1.450   4.254
   43POPE  C314 3836   6.314   1.312   4.187
   43POPE  H14X 3837   6.218   1.274   4.227
   43POPE  H14Y 3838   6.378   1.223   4.169
   43POPE  C315 3839   6.286   1.380   4.054
   43POPE  H15X 3840   6.210   1.460   4.070
   43POPE  H15Y 3841   6.242   1.303   3.987
   43POPE  C316 3842   6.405   1.443   3.983
   43POPE  H16X 3843   6.493   1.374   3.982
   43POPE  H16Y 3844   6.434   1.537   4.034
   43POPE  H16Z 3845   6.378   1.467   3.878
   44POPE     N 3846   3.877   6.909   6.394
   44POPE   HN1 3847   3.820   6.948   6.317
   44POPE   HN2 3848   3.831   6.823   6.431
   44POPE   HN3 3849   3.881   6.983   6.467
   44POPE   C12 3850   4.013   6.885   6.332
   44POPE  H12A 3851   3.996   6.825   6.240
   44POPE  H12B 3852   4.074   6.825   6.403
   44POPE   C11 3853   4.086   7.017   6.296
   44POPE  H11A 3854   4.166   6.996   6.222
   44POPE  H11B 3855   4.136   7.056   6.387
   44POPE     P 3856   3.912   7.091   6.116
   44POPE   O13 3857   3.788   7.031   6.172
   44POPE   O14 3858   3.994   7.007   6.028
   44POPE   O11 3859   3.882   7.234   6.060
   44POPE   O12 3860   3.999   7.120   6.247
   44POPE    C1 3861   3.939   7.284   5.939
   44POPE    HA 3862   4.037   7.239   5.915
   44POPE    HB 3863   3.955   7.393   5.951
   44POPE    C2 3864   3.843   7.263   5.818
   44POPE    HS 3865   3.742   7.293   5.853
   44POPE   O21 3866   3.845   7.125   5.780
   44POPE   C21 3867   3.745   7.086   5.703
   44POPE   O22 3868   3.650   7.156   5.671
   44POPE   C22 3869   3.764   6.939   5.666
   44POPE   H2R 3870   3.724   6.880   5.751
   44POPE   H2S 3871   3.874   6.919   5.659
   44POPE    C3 3872   3.880   7.356   5.698
   44POPE    HX 3873   3.868   7.461   5.734
   44POPE    HY 3874   3.806   7.344   5.616
   44POPE   O31 3875   4.016   7.340   5.653
   44POPE   C31 3876   4.033   7.254   5.554
   44POPE   O32 3877   3.949   7.179   5.508
   44POPE   C32 3878   4.172   7.270   5.494
   44POPE   H2X 3879   4.211   7.168   5.472
   44POPE   H2Y 3880   4.240   7.320   5.567
   44POPE   C23 3881   3.694   6.896   5.535
   44POPE   H3R 3882   3.587   6.926   5.538
   44POPE   H3S 3883   3.697   6.785   5.528
   44POPE   C24 3884   3.760   6.953   5.408
   44POPE   H4R 3885   3.868   6.928   5.407
   44POPE   H4S 3886   3.752   7.064   5.412
   44POPE   C25 3887   3.694   6.904   5.279
   44POPE   H5R 3888   3.585   6.918   5.292
   44POPE   H5S 3889   3.712   6.796   5.265
   44POPE   C26 3890   3.737   6.982   5.154
   44POPE   H6R 3891   3.736   7.091   5.176
   44POPE   H6S 3892   3.664   6.964   5.073
   44POPE   C27 3893   3.874   6.942   5.097
   44POPE   H7R 3894   3.878   6.831   5.091
   44POPE   H7S 3895   3.954   6.975   5.166
   44POPE   C28 3896   3.899   6.998   4.955
   44POPE   H8R 3897   3.823   6.956   4.886
   44POPE   H8S 3898   3.998   6.961   4.920
   44POPE   C29 3899   3.892   7.149   4.951
   44POPE   H91 3900   3.791   7.191   4.943
   44POPE  C210 3901   3.997   7.233   4.959
   44POPE  H101 3902   3.978   7.342   4.956
   44POPE  C211 3903   4.141   7.193   4.974
   44POPE  H11R 3904   4.166   7.106   4.909
   44POPE  H11S 3905   4.160   7.161   5.079
   44POPE  C212 3906   4.237   7.309   4.941
   44POPE  H12R 3907   4.340   7.275   4.964
   44POPE  H12S 3908   4.216   7.395   5.008
   44POPE  C213 3909   4.234   7.357   4.795
   44POPE  H13R 3910   4.310   7.436   4.783
   44POPE  H13S 3911   4.134   7.401   4.773
   44POPE  C214 3912   4.263   7.248   4.690
   44POPE  H14R 3913   4.259   7.295   4.589
   44POPE  H14S 3914   4.184   7.170   4.694
   44POPE  C215 3915   4.401   7.184   4.705
   44POPE  H15R 3916   4.410   7.139   4.806
   44POPE  H15S 3917   4.478   7.264   4.696
   44POPE  C216 3918   4.425   7.074   4.602
   44POPE  H16R 3919   4.394   7.110   4.501
   44POPE  H16S 3920   4.360   6.988   4.628
   44POPE  C217 3921   4.571   7.030   4.595
   44POPE  H17R 3922   4.578   6.940   4.531
   44POPE  H17S 3923   4.607   7.001   4.696
   44POPE  C218 3924   4.663   7.139   4.537
   44POPE  H18R 3925   4.762   7.098   4.509
   44POPE  H18S 3926   4.680   7.218   4.612
   44POPE  H18T 3927   4.618   7.184   4.446
   44POPE   C33 3928   4.162   7.352   5.363
   44POPE   H3X 3929   4.089   7.304   5.295
   44POPE   H3Y 3930   4.260   7.351   5.311
   44POPE   C34 3931   4.121   7.497   5.389
   44POPE   H4X 3932   4.206   7.548   5.441
   44POPE   H4Y 3933   4.033   7.503   5.457
   44POPE   C35 3934   4.087   7.574   5.261
   44POPE   H5X 3935   4.162   7.547   5.183
   44POPE   H5Y 3936   4.097   7.683   5.281
   44POPE   C36 3937   3.945   7.548   5.208
   44POPE   H6X 3938   3.870   7.582   5.282
   44POPE   H6Y 3939   3.931   7.439   5.191
   44POPE   C37 3940   3.926   7.624   5.076
   44POPE   H7X 3941   4.007   7.587   5.009
   44POPE   H7Y 3942   3.943   7.732   5.094
   44POPE   C38 3943   3.792   7.606   5.005
   44POPE   H8X 3944   3.713   7.657   5.064
   44POPE   H8Y 3945   3.766   7.498   4.999
   44POPE   C39 3946   3.796   7.664   4.862
   44POPE   H9X 3947   3.829   7.770   4.866
   44POPE   H9Y 3948   3.693   7.663   4.820
   44POPE  C310 3949   3.888   7.584   4.769
   44POPE  H10X 3950   3.857   7.477   4.776
   44POPE  H10Y 3951   3.993   7.589   4.805
   44POPE  C311 3952   3.888   7.630   4.623
   44POPE  H11X 3953   3.931   7.732   4.617
   44POPE  H11Y 3954   3.783   7.635   4.585
   44POPE  C312 3955   3.970   7.535   4.534
   44POPE  H12X 3956   4.070   7.519   4.579
   44POPE  H12Y 3957   3.986   7.583   4.435
   44POPE  C313 3958   3.901   7.399   4.512
   44POPE  H13X 3959   3.807   7.416   4.455
   44POPE  H13Y 3960   3.874   7.353   4.609
   44POPE  C314 3961   3.990   7.300   4.435
   44POPE  H14X 3962   4.067   7.260   4.504
   44POPE  H14Y 3963   4.042   7.356   4.355
   44POPE  C315 3964   3.913   7.182   4.374
   44POPE  H15X 3965   3.985   7.118   4.319
   44POPE  H15Y 3966   3.840   7.221   4.300
   44POPE  C316 3967   3.839   7.096   4.477
   44POPE  H16X 3968   3.789   7.010   4.427
   44POPE  H16Y 3969   3.762   7.155   4.530
   44POPE  H16Z 3970   3.910   7.056   4.553
   45POPE     N 3971   0.948   3.176   6.354
   45POPE   HN1 3972   0.940   3.240   6.272
   45POPE   HN2 3973   0.913   3.233   6.434
   45POPE   HN3 3974   1.049   3.157   6.369
   45POPE   C12 3975   0.864   3.054   6.329
   45POPE  H12A 3976   0.877   2.985   6.415
   45POPE  H12B 3977   0.902   3.005   6.237
   45POPE   C11 3978   0.717   3.093   6.311
   45POPE  H11A 3979   0.677   3.140   6.403
   45POPE  H11B 3980   0.659   3.000   6.293
   45POPE     P 3981   0.583   3.184   6.103
   45POPE   O13 3982   0.617   3.269   5.988
   45POPE   O14 3983   0.463   3.217   6.183
   45POPE   O11 3984   0.575   3.031   6.063
   45POPE   O12 3985   0.707   3.185   6.202
   45POPE    C1 3986   0.683   2.957   6.007
   45POPE    HA 3987   0.690   2.860   6.062
   45POPE    HB 3988   0.781   3.008   6.019
   45POPE    C2 3989   0.661   2.923   5.857
   45POPE    HS 3990   0.746   2.860   5.822
   45POPE   O21 3991   0.652   3.042   5.778
   45POPE   C21 3992   0.763   3.110   5.763
   45POPE   O22 3993   0.874   3.073   5.799
   45POPE   C22 3994   0.734   3.240   5.691
   45POPE   H2R 3995   0.746   3.320   5.767
   45POPE   H2S 3996   0.628   3.242   5.658
   45POPE    C3 3997   0.533   2.839   5.833
   45POPE    HX 3998   0.445   2.893   5.875
   45POPE    HY 3999   0.542   2.744   5.891
   45POPE   O31 4000   0.520   2.808   5.693
   45POPE   C31 4001   0.446   2.892   5.623
   45POPE   O32 4002   0.383   2.987   5.665
   45POPE   C32 4003   0.443   2.846   5.477
   45POPE   H2X 4004   0.340   2.808   5.463
   45POPE   H2Y 4005   0.516   2.764   5.461
   45POPE   C23 4006   0.831   3.267   5.574
   45POPE   H3R 4007   0.935   3.244   5.606
   45POPE   H3S 4008   0.828   3.377   5.553
   45POPE   C24 4009   0.797   3.195   5.442
   45POPE   H4R 4010   0.807   3.085   5.454
   45POPE   H4S 4011   0.869   3.227   5.363
   45POPE   C25 4012   0.658   3.229   5.390
   45POPE   H5R 4013   0.632   3.331   5.425
   45POPE   H5S 4014   0.586   3.163   5.443
   45POPE   C26 4015   0.638   3.228   5.237
   45POPE   H6R 4016   0.682   3.323   5.199
   45POPE   H6S 4017   0.529   3.230   5.218
   45POPE   C27 4018   0.699   3.117   5.150
   45POPE   H7R 4019   0.678   3.017   5.194
   45POPE   H7S 4020   0.810   3.128   5.149
   45POPE   C28 4021   0.644   3.116   5.004
   45POPE   H8R 4022   0.537   3.088   5.008
   45POPE   H8S 4023   0.696   3.032   4.952
   45POPE   C29 4024   0.662   3.241   4.921
   45POPE   H91 4025   0.764   3.282   4.921
   45POPE  C210 4026   0.568   3.306   4.847
   45POPE  H101 4027   0.597   3.396   4.791
   45POPE  C211 4028   0.424   3.265   4.832
   45POPE  H11R 4029   0.378   3.259   4.933
   45POPE  H11S 4030   0.419   3.163   4.788
   45POPE  C212 4031   0.332   3.355   4.746
   45POPE  H12R 4032   0.356   3.463   4.762
   45POPE  H12S 4033   0.228   3.339   4.780
   45POPE  C213 4034   0.334   3.323   4.595
   45POPE  H13R 4035   0.337   3.213   4.581
   45POPE  H13S 4036   0.428   3.364   4.552
   45POPE  C214 4037   0.213   3.379   4.518
   45POPE  H14R 4038   0.217   3.490   4.529
   45POPE  H14S 4039   0.118   3.343   4.564
   45POPE  C215 4040   0.214   3.345   4.368
   45POPE  H15R 4041   0.174   3.242   4.352
   45POPE  H15S 4042   0.319   3.341   4.334
   45POPE  C216 4043   0.141   3.448   4.281
   45POPE  H16R 4044   0.161   3.550   4.320
   45POPE  H16S 4045   0.031   3.431   4.288
   45POPE  C217 4046   0.182   3.447   4.132
   45POPE  H17R 4047   0.283   3.492   4.124
   45POPE  H17S 4048   0.113   3.513   4.076
   45POPE  C218 4049   0.185   3.309   4.067
   45POPE  H18R 4050   0.087   3.257   4.077
   45POPE  H18S 4051   0.263   3.246   4.113
   45POPE  H18T 4052   0.208   3.319   3.958
   45POPE   C33 4053   0.463   2.959   5.376
   45POPE   H3X 4054   0.572   2.973   5.364
   45POPE   H3Y 4055   0.417   3.053   5.415
   45POPE   C34 4056   0.398   2.936   5.240
   45POPE   H4X 4057   0.440   2.846   5.189
   45POPE   H4Y 4058   0.426   3.024   5.178
   45POPE   C35 4059   0.245   2.927   5.245
   45POPE   H5X 4060   0.209   2.959   5.345
   45POPE   H5Y 4061   0.214   2.822   5.229
   45POPE   C36 4062   0.175   3.015   5.140
   45POPE   H6X 4063   0.197   3.122   5.161
   45POPE   H6Y 4064   0.066   2.998   5.146
   45POPE   C37 4065   0.224   2.983   4.999
   45POPE   H7X 4066   0.225   2.872   4.987
   45POPE   H7Y 4067   0.329   3.018   4.992
   45POPE   C38 4068   0.143   3.048   4.887
   45POPE   H8X 4069   0.156   3.158   4.893
   45POPE   H8Y 4070   0.035   3.026   4.902
   45POPE   C39 4071   0.185   3.000   4.746
   45POPE   H9X 4072   0.194   3.088   4.680
   45POPE   H9Y 4073   0.101   2.938   4.706
   45POPE  C310 4074   0.314   2.917   4.743
   45POPE  H10X 4075   0.294   2.815   4.782
   45POPE  H10Y 4076   0.391   2.963   4.809
   45POPE  C311 4077   0.384   2.905   4.607
   45POPE  H11X 4078   0.393   3.004   4.557
   45POPE  H11Y 4079   0.323   2.839   4.541
   45POPE  C312 4080   0.523   2.843   4.624
   45POPE  H12X 4081   0.554   2.794   4.529
   45POPE  H12Y 4082   0.516   2.763   4.701
   45POPE  C313 4083   0.632   2.944   4.667
   45POPE  H13X 4084   0.718   2.886   4.706
   45POPE  H13Y 4085   0.595   3.008   4.750
   45POPE  C314 4086   0.683   3.033   4.552
   45POPE  H14X 4087   0.626   3.129   4.552
   45POPE  H14Y 4088   0.663   2.982   4.455
   45POPE  C315 4089   0.834   3.061   4.561
   45POPE  H15X 4090   0.886   2.963   4.571
   45POPE  H15Y 4091   0.855   3.120   4.652
   45POPE  C316 4092   0.892   3.134   4.439
   45POPE  H16X 4093   0.855   3.238   4.435
   45POPE  H16Y 4094   0.862   3.082   4.345
   45POPE  H16Z 4095   1.003   3.136   4.443
   46POPE     N 4096   1.377   1.687   6.469
   46POPE   HN1 4097   1.395   1.748   6.551
   46POPE   HN2 4098   1.407   1.589   6.489
   46POPE   HN3 4099   1.430   1.720   6.385
   46POPE   C12 4100   1.233   1.696   6.427
   46POPE  H12A 4101   1.201   1.802   6.443
   46POPE  H12B 4102   1.172   1.628   6.490
   46POPE   C11 4103   1.225   1.664   6.278
   46POPE  H11A 4104   1.123   1.684   6.240
   46POPE  H11B 4105   1.246   1.555   6.265
   46POPE     P 4106   1.360   1.713   6.061
   46POPE   O13 4107   1.352   1.567   6.044
   46POPE   O14 4108   1.488   1.783   6.034
   46POPE   O11 4109   1.241   1.783   5.983
   46POPE   O12 4110   1.322   1.745   6.212
   46POPE    C1 4111   1.184   1.905   6.030
   46POPE    HA 4112   1.259   1.972   6.077
   46POPE    HB 4113   1.106   1.882   6.106
   46POPE    C2 4114   1.114   1.985   5.915
   46POPE    HS 4115   1.035   2.049   5.958
   46POPE   O21 4116   1.058   1.898   5.815
   46POPE   C21 4117   0.983   1.799   5.856
   46POPE   O22 4118   0.925   1.790   5.963
   46POPE   C22 4119   0.974   1.694   5.745
   46POPE   H2R 4120   0.886   1.719   5.683
   46POPE   H2S 4121   0.959   1.594   5.792
   46POPE    C3 4122   1.216   2.079   5.843
   46POPE    HX 4123   1.262   2.144   5.920
   46POPE    HY 4124   1.160   2.146   5.774
   46POPE   O31 4125   1.321   2.003   5.778
   46POPE   C31 4126   1.296   1.973   5.650
   46POPE   O32 4127   1.209   2.023   5.582
   46POPE   C32 4128   1.391   1.863   5.602
   46POPE   H2X 4129   1.331   1.781   5.556
   46POPE   H2Y 4130   1.444   1.821   5.691
   46POPE   C23 4131   1.102   1.686   5.658
   46POPE   H3R 4132   1.188   1.657   5.722
   46POPE   H3S 4133   1.121   1.786   5.615
   46POPE   C24 4134   1.091   1.588   5.540
   46POPE   H4R 4135   1.058   1.490   5.580
   46POPE   H4S 4136   1.191   1.574   5.493
   46POPE   C25 4137   0.994   1.638   5.432
   46POPE   H5R 4138   0.900   1.672   5.481
   46POPE   H5S 4139   0.967   1.555   5.364
   46POPE   C26 4140   1.048   1.754   5.347
   46POPE   H6R 4141   1.135   1.802   5.397
   46POPE   H6S 4142   0.970   1.833   5.336
   46POPE   C27 4143   1.087   1.707   5.206
   46POPE   H7R 4144   1.002   1.654   5.159
   46POPE   H7S 4145   1.169   1.633   5.217
   46POPE   C28 4146   1.135   1.823   5.118
   46POPE   H8R 4147   1.221   1.784   5.059
   46POPE   H8S 4148   1.174   1.902   5.185
   46POPE   C29 4149   1.032   1.885   5.029
   46POPE   H91 4150   0.938   1.914   5.079
   46POPE  C210 4151   1.046   1.907   4.898
   46POPE  H101 4152   0.962   1.955   4.845
   46POPE  C211 4153   1.164   1.876   4.809
   46POPE  H11R 4154   1.251   1.835   4.864
   46POPE  H11S 4155   1.200   1.971   4.762
   46POPE  C212 4156   1.125   1.779   4.696
   46POPE  H12R 4157   1.150   1.825   4.598
   46POPE  H12S 4158   1.016   1.759   4.694
   46POPE  C213 4159   1.200   1.645   4.706
   46POPE  H13R 4160   1.203   1.611   4.812
   46POPE  H13S 4161   1.304   1.666   4.675
   46POPE  C214 4162   1.140   1.533   4.620
   46POPE  H14R 4163   1.042   1.501   4.662
   46POPE  H14S 4164   1.208   1.445   4.623
   46POPE  C215 4165   1.116   1.573   4.474
   46POPE  H15R 4166   1.042   1.655   4.469
   46POPE  H15S 4167   1.071   1.486   4.420
   46POPE  C216 4168   1.245   1.615   4.404
   46POPE  H16R 4169   1.323   1.539   4.426
   46POPE  H16S 4170   1.279   1.712   4.447
   46POPE  C217 4171   1.233   1.624   4.252
   46POPE  H17R 4172   1.239   1.519   4.216
   46POPE  H17S 4173   1.322   1.676   4.210
   46POPE  C218 4174   1.104   1.687   4.198
   46POPE  H18R 4175   1.102   1.684   4.087
   46POPE  H18S 4176   1.089   1.791   4.232
   46POPE  H18T 4177   1.017   1.629   4.236
   46POPE   C33 4178   1.493   1.915   5.499
   46POPE   H3X 4179   1.575   1.841   5.486
   46POPE   H3Y 4180   1.537   2.008   5.540
   46POPE   C34 4181   1.435   1.948   5.361
   46POPE   H4X 4182   1.500   2.023   5.312
   46POPE   H4Y 4183   1.336   1.997   5.373
   46POPE   C35 4184   1.418   1.830   5.264
   46POPE   H5X 4185   1.376   1.878   5.173
   46POPE   H5Y 4186   1.345   1.757   5.304
   46POPE   C36 4187   1.542   1.756   5.213
   46POPE   H6X 4188   1.558   1.664   5.273
   46POPE   H6Y 4189   1.633   1.820   5.226
   46POPE   C37 4190   1.525   1.721   5.064
   46POPE   H7X 4191   1.503   1.813   5.005
   46POPE   H7Y 4192   1.436   1.655   5.056
   46POPE   C38 4193   1.646   1.650   5.003
   46POPE   H8X 4194   1.693   1.593   5.085
   46POPE   H8Y 4195   1.720   1.724   4.965
   46POPE   C39 4196   1.608   1.549   4.893
   46POPE   H9X 4197   1.522   1.489   4.929
   46POPE   H9Y 4198   1.693   1.479   4.880
   46POPE  C310 4199   1.574   1.610   4.756
   46POPE  H10X 4200   1.662   1.660   4.712
   46POPE  H10Y 4201   1.497   1.689   4.774
   46POPE  C311 4202   1.516   1.506   4.657
   46POPE  H11X 4203   1.455   1.560   4.582
   46POPE  H11Y 4204   1.448   1.439   4.713
   46POPE  C312 4205   1.619   1.424   4.580
   46POPE  H12X 4206   1.586   1.318   4.572
   46POPE  H12Y 4207   1.714   1.424   4.638
   46POPE  C313 4208   1.648   1.478   4.439
   46POPE  H13X 4209   1.758   1.472   4.423
   46POPE  H13Y 4210   1.620   1.585   4.433
   46POPE  C314 4211   1.582   1.400   4.324
   46POPE  H14X 4212   1.471   1.411   4.328
   46POPE  H14Y 4213   1.604   1.292   4.338
   46POPE  C315 4214   1.635   1.446   4.188
   46POPE  H15X 4215   1.737   1.487   4.204
   46POPE  H15Y 4216   1.570   1.529   4.152
   46POPE  C316 4217   1.648   1.341   4.077
   46POPE  H16X 4218   1.573   1.260   4.091
   46POPE  H16Y 4219   1.749   1.294   4.078
   46POPE  H16Z 4220   1.634   1.387   3.977
   47POPE     N 4221   5.156   0.940   6.109
   47POPE   HN1 4222   5.151   0.894   6.016
   47POPE   HN2 4223   5.092   1.022   6.111
   47POPE   HN3 4224   5.254   0.969   6.122
   47POPE   C12 4225   5.125   0.838   6.217
   47POPE  H12A 4226   5.071   0.754   6.169
   47POPE  H12B 4227   5.058   0.887   6.291
   47POPE   C11 4228   5.254   0.788   6.285
   47POPE  H11A 4229   5.226   0.705   6.354
   47POPE  H11B 4230   5.296   0.868   6.349
   47POPE     P 4231   5.474   0.823   6.145
   47POPE   O13 4232   5.587   0.794   6.237
   47POPE   O14 4233   5.422   0.962   6.140
   47POPE   O11 4234   5.500   0.770   5.999
   47POPE   O12 4235   5.348   0.737   6.190
   47POPE    C1 4236   5.395   0.793   5.902
   47POPE    HA 4237   5.392   0.900   5.872
   47POPE    HB 4238   5.296   0.763   5.944
   47POPE    C2 4239   5.409   0.708   5.773
   47POPE    HS 4240   5.435   0.605   5.804
   47POPE   O21 4241   5.514   0.763   5.688
   47POPE   C21 4242   5.542   0.680   5.586
   47POPE   O22 4243   5.491   0.571   5.571
   47POPE   C22 4244   5.643   0.741   5.489
   47POPE   H2R 4245   5.745   0.710   5.521
   47POPE   H2S 4246   5.634   0.852   5.493
   47POPE    C3 4247   5.270   0.705   5.701
   47POPE    HX 4248   5.201   0.650   5.769
   47POPE    HY 4249   5.272   0.645   5.608
   47POPE   O31 4250   5.215   0.838   5.682
   47POPE   C31 4251   5.244   0.893   5.564
   47POPE   O32 4252   5.307   0.840   5.475
   47POPE   C32 4253   5.183   1.033   5.556
   47POPE   H2X 4254   5.169   1.073   5.659
   47POPE   H2Y 4255   5.083   1.024   5.507
   47POPE   C23 4256   5.612   0.690   5.346
   47POPE   H3R 4257   5.508   0.722   5.323
   47POPE   H3S 4258   5.615   0.579   5.343
   47POPE   C24 4259   5.701   0.744   5.233
   47POPE   H4R 4260   5.725   0.851   5.252
   47POPE   H4S 4261   5.640   0.741   5.140
   47POPE   C25 4262   5.829   0.663   5.208
   47POPE   H5R 4263   5.838   0.578   5.278
   47POPE   H5S 4264   5.919   0.726   5.227
   47POPE   C26 4265   5.847   0.613   5.064
   47POPE   H6R 4266   5.780   0.671   4.997
   47POPE   H6S 4267   5.819   0.506   5.056
   47POPE   C27 4268   5.992   0.635   5.016
   47POPE   H7R 4269   6.059   0.561   5.063
   47POPE   H7S 4270   6.026   0.736   5.048
   47POPE   C28 4271   6.003   0.632   4.864
   47POPE   H8R 4272   6.106   0.664   4.837
   47POPE   H8S 4273   5.935   0.707   4.820
   47POPE   C29 4274   5.979   0.495   4.807
   47POPE   H91 4275   6.063   0.426   4.824
   47POPE  C210 4276   5.869   0.453   4.743
   47POPE  H101 4277   5.863   0.349   4.706
   47POPE  C211 4278   5.745   0.532   4.713
   47POPE  H11R 4279   5.734   0.618   4.781
   47POPE  H11S 4280   5.657   0.467   4.734
   47POPE  C212 4281   5.735   0.574   4.566
   47POPE  H12R 4282   5.754   0.488   4.498
   47POPE  H12S 4283   5.811   0.652   4.545
   47POPE  C213 4284   5.594   0.627   4.541
   47POPE  H13R 4285   5.575   0.703   4.620
   47POPE  H13S 4286   5.520   0.545   4.556
   47POPE  C214 4287   5.570   0.691   4.405
   47POPE  H14R 4288   5.516   0.620   4.339
   47POPE  H14S 4289   5.667   0.716   4.357
   47POPE  C215 4290   5.490   0.820   4.425
   47POPE  H15R 4291   5.544   0.884   4.498
   47POPE  H15S 4292   5.392   0.798   4.473
   47POPE  C216 4293   5.466   0.900   4.298
   47POPE  H16R 4294   5.564   0.921   4.249
   47POPE  H16S 4295   5.419   0.997   4.324
   47POPE  C217 4296   5.374   0.829   4.199
   47POPE  H17R 4297   5.274   0.815   4.245
   47POPE  H17S 4298   5.414   0.728   4.175
   47POPE  C218 4299   5.364   0.912   4.074
   47POPE  H18R 4300   5.466   0.934   4.035
   47POPE  H18S 4301   5.318   1.010   4.098
   47POPE  H18T 4302   5.305   0.860   3.995
   47POPE   C33 4303   5.272   1.128   5.474
   47POPE   H3X 4304   5.220   1.225   5.459
   47POPE   H3Y 4305   5.290   1.084   5.373
   47POPE   C34 4306   5.406   1.155   5.544
   47POPE   H4X 4307   5.460   1.059   5.559
   47POPE   H4Y 4308   5.387   1.200   5.644
   47POPE   C35 4309   5.498   1.248   5.464
   47POPE   H5X 4310   5.591   1.270   5.520
   47POPE   H5Y 4311   5.451   1.348   5.450
   47POPE   C36 4312   5.535   1.195   5.326
   47POPE   H6X 4313   5.445   1.201   5.261
   47POPE   H6Y 4314   5.563   1.088   5.334
   47POPE   C37 4315   5.648   1.274   5.262
   47POPE   H7X 4316   5.745   1.241   5.304
   47POPE   H7Y 4317   5.638   1.382   5.287
   47POPE   C38 4318   5.648   1.255   5.111
   47POPE   H8X 4319   5.735   1.309   5.067
   47POPE   H8Y 4320   5.556   1.299   5.067
   47POPE   C39 4321   5.653   1.106   5.077
   47POPE   H9X 4322   5.558   1.056   5.103
   47POPE   H9Y 4323   5.734   1.058   5.136
   47POPE  C310 4324   5.681   1.082   4.929
   47POPE  H10X 4325   5.776   1.134   4.903
   47POPE  H10Y 4326   5.600   1.125   4.867
   47POPE  C311 4327   5.698   0.933   4.899
   47POPE  H11X 4328   5.598   0.885   4.891
   47POPE  H11Y 4329   5.752   0.884   4.984
   47POPE  C312 4330   5.779   0.911   4.772
   47POPE  H12X 4331   5.768   0.807   4.738
   47POPE  H12Y 4332   5.887   0.929   4.792
   47POPE  C313 4333   5.735   1.002   4.659
   47POPE  H13X 4334   5.763   1.107   4.681
   47POPE  H13Y 4335   5.624   0.998   4.653
   47POPE  C314 4336   5.798   0.957   4.527
   47POPE  H14X 4337   5.755   0.859   4.499
   47POPE  H14Y 4338   5.907   0.941   4.539
   47POPE  C315 4339   5.774   1.057   4.414
   47POPE  H15X 4340   5.767   1.000   4.319
   47POPE  H15Y 4341   5.864   1.122   4.407
   47POPE  C316 4342   5.651   1.147   4.431
   47POPE  H16X 4343   5.669   1.221   4.513
   47POPE  H16Y 4344   5.560   1.090   4.458
   47POPE  H16Z 4345   5.630   1.203   4.338
   48POPE     N 4346   1.924   6.546   6.321
   48POPE   HN1 4347   1.960   6.450   6.340
   48POPE   HN2 4348   1.968   6.614   6.386
   48POPE   HN3 4349   1.821   6.546   6.332
   48POPE   C12 4350   1.953   6.576   6.177
   48POPE  H12A 4351   2.059   6.549   6.157
   48POPE  H12B 4352   1.939   6.685   6.160
   48POPE   C11 4353   1.857   6.497   6.087
   48POPE  H11A 4354   1.859   6.388   6.110
   48POPE  H11B 4355   1.890   6.506   5.981
   48POPE     P 4356   1.613   6.493   6.186
   48POPE   O13 4357   1.655   6.521   6.326
   48POPE   O14 4358   1.599   6.349   6.156
   48POPE   O11 4359   1.482   6.576   6.149
   48POPE   O12 4360   1.727   6.552   6.096
   48POPE    C1 4361   1.483   6.690   6.060
   48POPE    HA 4362   1.579   6.746   6.062
   48POPE    HB 4363   1.405   6.761   6.094
   48POPE    C2 4364   1.450   6.653   5.911
   48POPE    HS 4365   1.367   6.580   5.918
   48POPE   O21 4366   1.569   6.598   5.853
   48POPE   C21 4367   1.548   6.494   5.776
   48POPE   O22 4368   1.441   6.439   5.758
   48POPE   C22 4369   1.682   6.450   5.719
   48POPE   H2R 4370   1.744   6.418   5.805
   48POPE   H2S 4371   1.730   6.538   5.671
   48POPE    C3 4372   1.401   6.775   5.823
   48POPE    HX 4373   1.489   6.841   5.810
   48POPE    HY 4374   1.329   6.834   5.884
   48POPE   O31 4375   1.344   6.744   5.691
   48POPE   C31 4376   1.218   6.699   5.700
   48POPE   O32 4377   1.172   6.649   5.802
   48POPE   C32 4378   1.126   6.735   5.577
   48POPE   H2X 4379   1.096   6.838   5.604
   48POPE   H2Y 4380   1.036   6.670   5.585
   48POPE   C23 4381   1.668   6.336   5.617
   48POPE   H3R 4382   1.651   6.378   5.515
   48POPE   H3S 4383   1.578   6.275   5.638
   48POPE   C24 4384   1.789   6.241   5.618
   48POPE   H4R 4385   1.753   6.136   5.607
   48POPE   H4S 4386   1.841   6.248   5.716
   48POPE   C25 4387   1.885   6.272   5.504
   48POPE   H5R 4388   1.985   6.228   5.523
   48POPE   H5S 4389   1.899   6.382   5.499
   48POPE   C26 4390   1.831   6.219   5.370
   48POPE   H6R 4391   1.720   6.219   5.371
   48POPE   H6S 4392   1.863   6.113   5.359
   48POPE   C27 4393   1.878   6.303   5.252
   48POPE   H7R 4394   1.867   6.245   5.157
   48POPE   H7S 4395   1.986   6.324   5.264
   48POPE   C28 4396   1.799   6.435   5.245
   48POPE   H8R 4397   1.873   6.517   5.230
   48POPE   H8S 4398   1.754   6.457   5.344
   48POPE   C29 4399   1.692   6.436   5.139
   48POPE   H91 4400   1.621   6.352   5.141
   48POPE  C210 4401   1.679   6.532   5.046
   48POPE  H101 4402   1.597   6.527   4.972
   48POPE  C211 4403   1.770   6.652   5.036
   48POPE  H11R 4404   1.791   6.695   5.136
   48POPE  H11S 4405   1.867   6.614   4.997
   48POPE  C212 4406   1.726   6.767   4.944
   48POPE  H12R 4407   1.817   6.802   4.891
   48POPE  H12S 4408   1.654   6.733   4.867
   48POPE  C213 4409   1.672   6.890   5.018
   48POPE  H13R 4410   1.749   6.924   5.091
   48POPE  H13S 4411   1.581   6.865   5.076
   48POPE  C214 4412   1.642   7.007   4.923
   48POPE  H14R 4413   1.719   7.012   4.843
   48POPE  H14S 4414   1.646   7.102   4.980
   48POPE  C215 4415   1.501   6.997   4.863
   48POPE  H15R 4416   1.432   6.983   4.949
   48POPE  H15S 4417   1.492   6.908   4.796
   48POPE  C216 4418   1.455   7.122   4.790
   48POPE  H16R 4419   1.511   7.139   4.695
   48POPE  H16S 4420   1.475   7.209   4.856
   48POPE  C217 4421   1.304   7.114   4.764
   48POPE  H17R 4422   1.260   7.046   4.840
   48POPE  H17S 4423   1.284   7.068   4.664
   48POPE  C218 4424   1.235   7.249   4.774
   48POPE  H18R 4425   1.135   7.245   4.821
   48POPE  H18S 4426   1.221   7.290   4.671
   48POPE  H18T 4427   1.295   7.321   4.833
   48POPE   C33 4428   1.170   6.736   5.426
   48POPE   H3X 4429   1.263   6.676   5.417
   48POPE   H3Y 4430   1.208   6.839   5.409
   48POPE   C34 4431   1.068   6.710   5.307
   48POPE   H4X 4432   1.122   6.744   5.216
   48POPE   H4Y 4433   0.992   6.789   5.324
   48POPE   C35 4434   0.978   6.583   5.266
   48POPE   H5X 4435   0.905   6.622   5.192
   48POPE   H5Y 4436   0.919   6.559   5.357
   48POPE   C36 4437   1.020   6.442   5.204
   48POPE   H6X 4438   0.935   6.372   5.219
   48POPE   H6Y 4439   1.108   6.398   5.257
   48POPE   C37 4440   1.064   6.428   5.056
   48POPE   H7X 4441   1.148   6.500   5.046
   48POPE   H7Y 4442   0.983   6.454   4.984
   48POPE   C38 4443   1.146   6.305   5.009
   48POPE   H8X 4444   1.081   6.215   5.015
   48POPE   H8Y 4445   1.232   6.287   5.077
   48POPE   C39 4446   1.199   6.321   4.863
   48POPE   H9X 4447   1.124   6.381   4.807
   48POPE   H9Y 4448   1.201   6.221   4.815
   48POPE  C310 4449   1.339   6.384   4.841
   48POPE  H10X 4450   1.418   6.317   4.882
   48POPE  H10Y 4451   1.349   6.480   4.897
   48POPE  C311 4452   1.367   6.410   4.691
   48POPE  H11X 4453   1.273   6.389   4.636
   48POPE  H11Y 4454   1.442   6.337   4.653
   48POPE  C312 4455   1.411   6.552   4.652
   48POPE  H12X 4456   1.520   6.566   4.672
   48POPE  H12Y 4457   1.358   6.626   4.715
   48POPE  C313 4458   1.381   6.583   4.503
   48POPE  H13X 4459   1.278   6.550   4.478
   48POPE  H13Y 4460   1.452   6.524   4.440
   48POPE  C314 4461   1.393   6.731   4.465
   48POPE  H14X 4462   1.490   6.768   4.506
   48POPE  H14Y 4463   1.314   6.791   4.513
   48POPE  C315 4464   1.387   6.757   4.313
   48POPE  H15X 4465   1.281   6.752   4.280
   48POPE  H15Y 4466   1.442   6.675   4.261
   48POPE  C316 4467   1.447   6.891   4.270
   48POPE  H16X 4468   1.555   6.896   4.296
   48POPE  H16Y 4469   1.394   6.977   4.318
   48POPE  H16Z 4470   1.439   6.903   4.159
   49POPE     N 4471   6.560   6.562   6.132
   49POPE   HN1 4472   6.516   6.577   6.225
   49POPE   HN2 4473   6.635   6.632   6.116
   49POPE   HN3 4474   6.487   6.577   6.059
   49POPE   C12 4475   6.612   6.422   6.123
   49POPE  H12A 4476   6.683   6.407   6.208
   49POPE  H12B 4477   6.667   6.409   6.027
   49POPE   C11 4478   6.498   6.320   6.131
   49POPE  H11A 4479   6.541   6.218   6.128
   49POPE  H11B 4480   6.434   6.333   6.041
   49POPE     P 4481   6.275   6.295   6.261
   49POPE   O13 4482   6.227   6.334   6.396
   49POPE   O14 4483   6.266   6.153   6.223
   49POPE   O11 4484   6.211   6.390   6.153
   49POPE   O12 4485   6.427   6.340   6.254
   49POPE    C1 4486   6.084   6.360   6.094
   49POPE    HA 4487   6.004   6.414   6.149
   49POPE    HB 4488   6.059   6.252   6.097
   49POPE    C2 4489   6.077   6.402   5.944
   49POPE    HS 4490   5.971   6.389   5.915
   49POPE   O21 4491   6.162   6.313   5.869
   49POPE   C21 4492   6.128   6.295   5.742
   49POPE   O22 4493   6.026   6.335   5.689
   49POPE   C22 4494   6.238   6.209   5.679
   49POPE   H2R 4495   6.209   6.104   5.701
   49POPE   H2S 4496   6.333   6.230   5.731
   49POPE    C3 4497   6.115   6.552   5.920
   49POPE    HX 4498   6.066   6.610   6.001
   49POPE    HY 4499   6.067   6.586   5.826
   49POPE   O31 4500   6.259   6.579   5.924
   49POPE   C31 4501   6.317   6.569   5.803
   49POPE   O32 4502   6.258   6.545   5.700
   49POPE   C32 4503   6.468   6.585   5.815
   49POPE   H2X 4504   6.509   6.490   5.855
   49POPE   H2Y 4505   6.488   6.669   5.886
   49POPE   C23 4506   6.259   6.227   5.527
   49POPE   H3R 4507   6.336   6.306   5.510
   49POPE   H3S 4508   6.167   6.262   5.476
   49POPE   C24 4509   6.305   6.095   5.463
   49POPE   H4R 4510   6.215   6.039   5.428
   49POPE   H4S 4511   6.356   6.032   5.538
   49POPE   C25 4512   6.397   6.110   5.342
   49POPE   H5R 4513   6.499   6.137   5.375
   49POPE   H5S 4514   6.359   6.194   5.279
   49POPE   C26 4515   6.399   5.980   5.260
   49POPE   H6R 4516   6.296   5.958   5.226
   49POPE   H6S 4517   6.430   5.896   5.326
   49POPE   C27 4518   6.492   5.983   5.138
   49POPE   H7R 4519   6.476   5.890   5.079
   49POPE   H7S 4520   6.597   5.983   5.172
   49POPE   C28 4521   6.471   6.105   5.046
   49POPE   H8R 4522   6.536   6.092   4.957
   49POPE   H8S 4523   6.509   6.195   5.098
   49POPE   C29 4524   6.326   6.124   5.008
   49POPE   H91 4525   6.265   6.181   5.079
   49POPE  C210 4526   6.268   6.078   4.896
   49POPE  H101 4527   6.163   6.102   4.875
   49POPE  C211 4528   6.340   6.000   4.789
   49POPE  H11R 4529   6.270   5.936   4.732
   49POPE  H11S 4530   6.417   5.933   4.833
   49POPE  C212 4531   6.409   6.100   4.696
   49POPE  H12R 4532   6.482   6.045   4.633
   49POPE  H12S 4533   6.469   6.171   4.756
   49POPE  C213 4534   6.311   6.180   4.608
   49POPE  H13R 4535   6.364   6.264   4.559
   49POPE  H13S 4536   6.231   6.226   4.670
   49POPE  C214 4537   6.248   6.097   4.495
   49POPE  H14R 4538   6.187   6.166   4.432
   49POPE  H14S 4539   6.177   6.023   4.539
   49POPE  C215 4540   6.351   6.022   4.409
   49POPE  H15R 4541   6.300   5.981   4.319
   49POPE  H15S 4542   6.387   5.935   4.467
   49POPE  C216 4543   6.472   6.106   4.364
   49POPE  H16R 4544   6.521   6.156   4.450
   49POPE  H16S 4545   6.438   6.186   4.296
   49POPE  C217 4546   6.580   6.022   4.294
   49POPE  H17R 4547   6.646   6.091   4.238
   49POPE  H17S 4548   6.530   5.955   4.220
   49POPE  C218 4549   6.666   5.940   4.390
   49POPE  H18R 4550   6.603   5.874   4.454
   49POPE  H18S 4551   6.725   6.007   4.456
   49POPE  H18T 4552   6.737   5.875   4.334
   49POPE   C33 4553   6.540   6.618   5.682
   49POPE   H3X 4554   6.648   6.631   5.706
   49POPE   H3Y 4555   6.505   6.716   5.642
   49POPE   C34 4556   6.526   6.510   5.573
   49POPE   H4X 4557   6.422   6.515   5.534
   49POPE   H4Y 4558   6.542   6.409   5.616
   49POPE   C35 4559   6.622   6.531   5.455
   49POPE   H5X 4560   6.722   6.491   5.483
   49POPE   H5Y 4561   6.633   6.639   5.435
   49POPE   C36 4562   6.578   6.461   5.325
   49POPE   H6X 4563   6.560   6.353   5.343
   49POPE   H6Y 4564   6.662   6.470   5.253
   49POPE   C37 4565   6.453   6.526   5.264
   49POPE   H7X 4566   6.470   6.636   5.260
   49POPE   H7Y 4567   6.365   6.510   5.330
   49POPE   C38 4568   6.418   6.475   5.123
   49POPE   H8X 4569   6.330   6.533   5.087
   49POPE   H8Y 4570   6.386   6.369   5.130
   49POPE   C39 4571   6.530   6.489   5.020
   49POPE   H9X 4572   6.611   6.416   5.041
   49POPE   H9Y 4573   6.574   6.591   5.027
   49POPE  C310 4574   6.479   6.470   4.877
   49POPE  H10X 4575   6.394   6.538   4.857
   49POPE  H10Y 4576   6.442   6.365   4.867
   49POPE  C311 4577   6.588   6.496   4.773
   49POPE  H11X 4578   6.682   6.447   4.807
   49POPE  H11Y 4579   6.608   6.605   4.766
   49POPE  C312 4580   6.550   6.439   4.636
   49POPE  H12X 4581   6.449   6.475   4.607
   49POPE  H12Y 4582   6.547   6.329   4.646
   49POPE  C313 4583   6.650   6.471   4.525
   49POPE  H13X 4584   6.631   6.402   4.440
   49POPE  H13Y 4585   6.753   6.452   4.561
   49POPE  C314 4586   6.644   6.616   4.478
   49POPE  H14X 4587   6.747   6.657   4.472
   49POPE  H14Y 4588   6.587   6.678   4.551
   49POPE  C315 4589   6.581   6.625   4.340
   49POPE  H15X 4590   6.560   6.732   4.317
   49POPE  H15Y 4591   6.483   6.572   4.340
   49POPE  C316 4592   6.672   6.565   4.233
   49POPE  H16X 4593   6.652   6.456   4.221
   49POPE  H16Y 4594   6.778   6.580   4.259
   49POPE  H16Z 4595   6.655   6.615   4.135
   50POPE     N 4596   4.929   7.657   6.240
   50POPE   HN1 4597   4.874   7.679   6.155
   50POPE   HN2 4598   5.008   7.592   6.222
   50POPE   HN3 4599   4.866   7.609   6.308
   50POPE   C12 4600   4.968   7.789   6.301
   50POPE  H12A 4601   5.004   7.854   6.219
   50POPE  H12B 4602   5.052   7.771   6.373
   50POPE   C11 4603   4.846   7.852   6.374
   50POPE  H11A 4604   4.866   7.959   6.394
   50POPE  H11B 4605   4.837   7.802   6.473
   50POPE     P 4606   4.706   7.891   6.156
   50POPE   O13 4607   4.566   7.935   6.137
   50POPE   O14 4608   4.761   7.783   6.072
   50POPE   O11 4609   4.807   8.013   6.158
   50POPE   O12 4610   4.722   7.836   6.304
   50POPE    C1 4611   4.785   8.127   6.074
   50POPE    HA 4612   4.838   8.215   6.119
   50POPE    HB 4613   4.678   8.155   6.068
   50POPE    C2 4614   4.841   8.109   5.930
   50POPE    HS 4615   4.793   8.018   5.888
   50POPE   O21 4616   4.986   8.097   5.936
   50POPE   C21 4617   5.037   8.021   5.839
   50POPE   O22 4618   4.972   7.961   5.756
   50POPE   C22 4619   5.190   8.023   5.846
   50POPE   H2R 4620   5.220   7.981   5.944
   50POPE   H2S 4621   5.226   8.128   5.838
   50POPE    C3 4622   4.798   8.231   5.843
   50POPE    HX 4623   4.820   8.322   5.902
   50POPE    HY 4624   4.688   8.229   5.828
   50POPE   O31 4625   4.872   8.239   5.720
   50POPE   C31 4626   4.821   8.171   5.618
   50POPE   O32 4627   4.716   8.108   5.620
   50POPE   C32 4628   4.909   8.192   5.497
   50POPE   H2X 4629   4.850   8.165   5.407
   50POPE   H2Y 4630   4.993   8.119   5.503
   50POPE   C23 4631   5.253   7.937   5.733
   50POPE   H3R 4632   5.199   7.841   5.724
   50POPE   H3S 4633   5.358   7.912   5.759
   50POPE   C24 4634   5.258   8.010   5.598
   50POPE   H4R 4635   5.338   8.087   5.602
   50POPE   H4S 4636   5.162   8.063   5.581
   50POPE   C25 4637   5.287   7.917   5.479
   50POPE   H5R 4638   5.383   7.866   5.499
   50POPE   H5S 4639   5.300   7.979   5.387
   50POPE   C26 4640   5.179   7.810   5.450
   50POPE   H6R 4641   5.166   7.743   5.538
   50POPE   H6S 4642   5.218   7.748   5.367
   50POPE   C27 4643   5.043   7.867   5.408
   50POPE   H7R 4644   5.062   7.941   5.327
   50POPE   H7S 4645   4.997   7.919   5.495
   50POPE   C28 4646   4.943   7.760   5.360
   50POPE   H8R 4647   4.891   7.719   5.450
   50POPE   H8S 4648   5.002   7.675   5.318
   50POPE   C29 4649   4.844   7.815   5.261
   50POPE   H91 4650   4.765   7.878   5.304
   50POPE  C210 4651   4.846   7.795   5.128
   50POPE  H101 4652   4.769   7.843   5.066
   50POPE  C211 4653   4.947   7.714   5.050
   50POPE  H11R 4654   4.896   7.648   4.977
   50POPE  H11S 4655   5.004   7.646   5.116
   50POPE  C212 4656   5.050   7.802   4.976
   50POPE  H12R 4657   5.122   7.736   4.923
   50POPE  H12S 4658   5.107   7.862   5.050
   50POPE  C213 4659   4.988   7.897   4.872
   50POPE  H13R 4660   5.073   7.948   4.820
   50POPE  H13S 4661   4.930   7.976   4.925
   50POPE  C214 4662   4.897   7.829   4.769
   50POPE  H14R 4663   4.819   7.770   4.821
   50POPE  H14S 4664   4.958   7.758   4.708
   50POPE  C215 4665   4.825   7.929   4.678
   50POPE  H15R 4666   4.756   7.990   4.740
   50POPE  H15S 4667   4.764   7.876   4.602
   50POPE  C216 4668   4.921   8.024   4.605
   50POPE  H16R 4669   4.986   8.073   4.681
   50POPE  H16S 4670   4.861   8.106   4.559
   50POPE  C217 4671   5.007   7.955   4.499
   50POPE  H17R 4672   4.942   7.916   4.419
   50POPE  H17S 4673   5.058   7.868   4.547
   50POPE  C218 4674   5.116   8.043   4.438
   50POPE  H18R 4675   5.192   8.067   4.515
   50POPE  H18S 4676   5.077   8.138   4.397
   50POPE  H18T 4677   5.169   7.990   4.356
   50POPE   C33 4678   4.969   8.335   5.489
   50POPE   H3X 4679   5.042   8.349   5.572
   50POPE   H3Y 4680   4.890   8.412   5.502
   50POPE   C34 4681   5.039   8.363   5.357
   50POPE   H4X 4682   5.072   8.469   5.353
   50POPE   H4Y 4683   4.968   8.349   5.273
   50POPE   C35 4684   5.160   8.274   5.330
   50POPE   H5X 4685   5.139   8.167   5.351
   50POPE   H5Y 4686   5.245   8.305   5.395
   50POPE   C36 4687   5.200   8.288   5.184
   50POPE   H6X 4688   5.203   8.396   5.160
   50POPE   H6Y 4689   5.122   8.241   5.120
   50POPE   C37 4690   5.336   8.227   5.153
   50POPE   H7X 4691   5.341   8.123   5.191
   50POPE   H7Y 4692   5.414   8.285   5.206
   50POPE   C38 4693   5.365   8.228   5.003
   50POPE   H8X 4694   5.316   8.139   4.958
   50POPE   H8Y 4695   5.475   8.218   4.990
   50POPE   C39 4696   5.319   8.354   4.928
   50POPE   H9X 4697   5.371   8.442   4.972
   50POPE   H9Y 4698   5.210   8.370   4.939
   50POPE  C310 4699   5.351   8.346   4.779
   50POPE  H10X 4700   5.456   8.310   4.772
   50POPE  H10Y 4701   5.347   8.447   4.733
   50POPE  C311 4702   5.259   8.248   4.702
   50POPE  H11X 4703   5.230   8.163   4.767
   50POPE  H11Y 4704   5.317   8.207   4.617
   50POPE  C312 4705   5.134   8.312   4.641
   50POPE  H12X 4706   5.072   8.355   4.722
   50POPE  H12Y 4707   5.070   8.234   4.595
   50POPE  C313 4708   5.170   8.408   4.528
   50POPE  H13X 4709   5.250   8.359   4.469
   50POPE  H13Y 4710   5.212   8.501   4.573
   50POPE  C314 4711   5.058   8.442   4.429
   50POPE  H14X 4712   4.974   8.371   4.443
   50POPE  H14Y 4713   5.095   8.429   4.325
   50POPE  C315 4714   5.009   8.586   4.445
   50POPE  H15X 4715   4.988   8.600   4.553
   50POPE  H15Y 4716   4.913   8.598   4.389
   50POPE  C316 4717   5.106   8.698   4.405
   50POPE  H16X 4718   5.129   8.693   4.296
   50POPE  H16Y 4719   5.202   8.689   4.461
   50POPE  H16Z 4720   5.062   8.797   4.428
   51POPE     N 4721   6.673   1.104   6.197
   51POPE   HN1 4722   6.677   1.045   6.282
   51POPE   HN2 4723   6.656   1.044   6.113
   51POPE   HN3 4724   6.766   1.149   6.184
   51POPE   C12 4725   6.579   1.221   6.201
   51POPE  H12A 4726   6.475   1.183   6.207
   51POPE  H12B 4727   6.591   1.276   6.105
   51POPE   C11 4728   6.609   1.316   6.319
   51POPE  H11A 4729   6.566   1.272   6.411
   51POPE  H11B 4730   6.556   1.413   6.302
   51POPE     P 4731   6.839   1.406   6.231
   51POPE   O13 4732   6.957   1.461   6.301
   51POPE   O14 4733   6.753   1.494   6.150
   51POPE   O11 4734   6.871   1.274   6.150
   51POPE   O12 4735   6.748   1.339   6.341
   51POPE    C1 4736   7.002   1.218   6.140
   51POPE    HA 4737   7.020   1.151   6.226
   51POPE    HB 4738   7.082   1.295   6.140
   51POPE    C2 4739   7.018   1.134   6.010
   51POPE    HS 4740   7.097   1.060   6.033
   51POPE   O21 4741   7.063   1.220   5.905
   51POPE   C21 4742   7.118   1.154   5.805
   51POPE   O22 4743   7.134   1.033   5.800
   51POPE   C22 4744   7.146   1.249   5.692
   51POPE   H2R 4745   7.246   1.296   5.705
   51POPE   H2S 4746   7.071   1.331   5.693
   51POPE    C3 4747   6.888   1.059   5.965
   51POPE    HX 4748   6.857   0.994   6.050
   51POPE    HY 4749   6.911   0.989   5.881
   51POPE   O31 4750   6.783   1.153   5.931
   51POPE   C31 4751   6.795   1.200   5.805
   51POPE   O32 4752   6.814   1.129   5.708
   51POPE   C32 4753   6.793   1.354   5.803
   51POPE   H2X 4754   6.867   1.386   5.879
   51POPE   H2Y 4755   6.693   1.389   5.837
   51POPE   C23 4756   7.138   1.168   5.562
   51POPE   H3R 4757   7.043   1.111   5.557
   51POPE   H3S 4758   7.221   1.094   5.566
   51POPE   C24 4759   7.149   1.252   5.436
   51POPE   H4R 4760   7.157   1.360   5.463
   51POPE   H4S 4761   7.058   1.240   5.374
   51POPE   C25 4762   7.272   1.213   5.355
   51POPE   H5R 4763   7.362   1.239   5.416
   51POPE   H5S 4764   7.274   1.273   5.262
   51POPE   C26 4765   7.274   1.065   5.320
   51POPE   H6R 4766   7.197   1.011   5.379
   51POPE   H6S 4767   7.371   1.017   5.346
   51POPE   C27 4768   7.246   1.039   5.173
   51POPE   H7R 4769   7.336   1.061   5.112
   51POPE   H7S 4770   7.167   1.109   5.138
   51POPE   C28 4771   7.206   0.894   5.155
   51POPE   H8R 4772   7.273   0.831   5.217
   51POPE   H8S 4773   7.219   0.864   5.048
   51POPE   C29 4774   7.064   0.879   5.200
   51POPE   H91 4775   7.049   0.840   5.302
   51POPE  C210 4776   6.959   0.915   5.126
   51POPE  H101 4777   6.857   0.901   5.165
   51POPE  C211 4778   6.971   0.975   4.990
   51POPE  H11R 4779   6.949   0.899   4.912
   51POPE  H11S 4780   7.075   1.010   4.967
   51POPE  C212 4781   6.877   1.094   4.974
   51POPE  H12R 4782   6.776   1.068   5.013
   51POPE  H12S 4783   6.869   1.115   4.866
   51POPE  C213 4784   6.925   1.221   5.043
   51POPE  H13R 4785   7.017   1.255   4.991
   51POPE  H13S 4786   6.954   1.198   5.148
   51POPE  C214 4787   6.819   1.333   5.047
   51POPE  H14R 4788   6.867   1.428   5.077
   51POPE  H14S 4789   6.749   1.307   5.129
   51POPE  C215 4790   6.735   1.355   4.919
   51POPE  H15R 4791   6.678   1.449   4.937
   51POPE  H15S 4792   6.662   1.272   4.909
   51POPE  C216 4793   6.808   1.372   4.785
   51POPE  H16R 4794   6.826   1.273   4.738
   51POPE  H16S 4795   6.907   1.418   4.804
   51POPE  C217 4796   6.731   1.461   4.687
   51POPE  H17R 4797   6.736   1.566   4.723
   51POPE  H17S 4798   6.624   1.431   4.687
   51POPE  C218 4799   6.782   1.455   4.542
   51POPE  H18R 4800   6.892   1.462   4.538
   51POPE  H18S 4801   6.738   1.537   4.482
   51POPE  H18T 4802   6.754   1.358   4.495
   51POPE   C33 4803   6.831   1.418   5.665
   51POPE   H3X 4804   6.739   1.452   5.611
   51POPE   H3Y 4805   6.882   1.345   5.600
   51POPE   C34 4806   6.920   1.542   5.679
   51POPE   H4X 4807   6.996   1.522   5.758
   51POPE   H4Y 4808   6.859   1.626   5.719
   51POPE   C35 4809   6.999   1.590   5.554
   51POPE   H5X 4810   7.091   1.530   5.544
   51POPE   H5Y 4811   7.033   1.692   5.582
   51POPE   C36 4812   6.933   1.605   5.413
   51POPE   H6X 4813   6.825   1.629   5.427
   51POPE   H6Y 4814   6.940   1.508   5.359
   51POPE   C37 4815   7.007   1.718   5.335
   51POPE   H7X 4816   7.114   1.688   5.346
   51POPE   H7Y 4817   6.992   1.813   5.390
   51POPE   C38 4818   6.989   1.746   5.182
   51POPE   H8X 4819   6.881   1.767   5.163
   51POPE   H8Y 4820   7.006   1.652   5.127
   51POPE   C39 4821   7.075   1.868   5.127
   51POPE   H9X 4822   7.123   1.921   5.212
   51POPE   H9Y 4823   6.997   1.939   5.092
   51POPE  C310 4824   7.173   1.864   5.003
   51POPE  H10X 4825   7.171   1.968   4.962
   51POPE  H10Y 4826   7.125   1.804   4.922
   51POPE  C311 4827   7.326   1.831   5.010
   51POPE  H11X 4828   7.351   1.763   5.094
   51POPE  H11Y 4829   7.383   1.925   5.028
   51POPE  C312 4830   7.386   1.754   4.889
   51POPE  H12X 4831   7.381   1.812   4.794
   51POPE  H12Y 4832   7.318   1.668   4.874
   51POPE  C313 4833   7.528   1.695   4.908
   51POPE  H13X 4834   7.523   1.617   4.988
   51POPE  H13Y 4835   7.598   1.773   4.944
   51POPE  C314 4836   7.591   1.630   4.782
   51POPE  H14X 4837   7.676   1.565   4.812
   51POPE  H14Y 4838   7.633   1.709   4.716
   51POPE  C315 4839   7.492   1.547   4.699
   51POPE  H15X 4840   7.414   1.616   4.659
   51POPE  H15Y 4841   7.444   1.475   4.769
   51POPE  C316 4842   7.547   1.466   4.582
   51POPE  H16X 4843   7.464   1.425   4.521
   51POPE  H16Y 4844   7.605   1.379   4.620
   51POPE  H16Z 4845   7.611   1.528   4.516
   52POPE     N 4846   5.989   6.822   6.228
   52POPE   HN1 4847   5.930   6.905   6.206
   52POPE   HN2 4848   5.954   6.744   6.169
   52POPE   HN3 4849   5.967   6.797   6.327
   52POPE   C12 4850   6.133   6.862   6.214
   52POPE  H12A 4851   6.154   6.877   6.106
   52POPE  H12B 4852   6.197   6.780   6.253
   52POPE   C11 4853   6.160   6.994   6.291
   52POPE  H11A 4854   6.264   7.028   6.272
   52POPE  H11B 4855   6.155   6.973   6.400
   52POPE     P 4856   6.091   7.204   6.148
   52POPE   O13 4857   6.201   7.293   6.194
   52POPE   O14 4858   5.961   7.263   6.115
   52POPE   O11 4859   6.142   7.113   6.029
   52POPE   O12 4860   6.063   7.093   6.260
   52POPE    C1 4861   6.164   7.170   5.899
   52POPE    HA 4862   6.272   7.192   5.886
   52POPE    HB 4863   6.108   7.265   5.883
   52POPE    C2 4864   6.121   7.073   5.785
   52POPE    HS 4865   6.166   7.111   5.690
   52POPE   O21 4866   5.977   7.067   5.781
   52POPE   C21 4867   5.921   7.142   5.687
   52POPE   O22 4868   5.978   7.190   5.592
   52POPE   C22 4869   5.772   7.160   5.720
   52POPE   H2R 4870   5.767   7.236   5.802
   52POPE   H2S 4871   5.732   7.064   5.760
   52POPE    C3 4872   6.180   6.931   5.808
   52POPE    HX 4873   6.123   6.886   5.892
   52POPE    HY 4874   6.286   6.939   5.840
   52POPE   O31 4875   6.165   6.846   5.692
   52POPE   C31 4876   6.259   6.863   5.598
   52POPE   O32 4877   6.356   6.935   5.608
   52POPE   C32 4878   6.228   6.774   5.479
   52POPE   H2X 4879   6.200   6.674   5.516
   52POPE   H2Y 4880   6.320   6.764   5.417
   52POPE   C23 4881   5.687   7.211   5.601
   52POPE   H3R 4882   5.733   7.303   5.559
   52POPE   H3S 4883   5.586   7.241   5.636
   52POPE   C24 4884   5.671   7.109   5.488
   52POPE   H4R 4885   5.595   7.033   5.516
   52POPE   H4S 4886   5.769   7.057   5.478
   52POPE   C25 4887   5.639   7.168   5.350
   52POPE   H5R 4888   5.622   7.277   5.359
   52POPE   H5S 4889   5.546   7.123   5.309
   52POPE   C26 4890   5.754   7.142   5.251
   52POPE   H6R 4891   5.772   7.033   5.242
   52POPE   H6S 4892   5.847   7.185   5.295
   52POPE   C27 4893   5.734   7.203   5.112
   52POPE   H7R 4894   5.828   7.255   5.085
   52POPE   H7S 4895   5.654   7.280   5.114
   52POPE   C28 4896   5.704   7.096   5.005
   52POPE   H8R 4897   5.601   7.057   5.020
   52POPE   H8S 4898   5.773   7.011   5.020
   52POPE   C29 4899   5.720   7.155   4.868
   52POPE   H91 4900   5.627   7.192   4.821
   52POPE  C210 4901   5.836   7.165   4.800
   52POPE  H101 4902   5.834   7.211   4.700
   52POPE  C211 4903   5.972   7.119   4.846
   52POPE  H11R 4904   5.963   7.047   4.930
   52POPE  H11S 4905   6.031   7.205   4.885
   52POPE  C212 4906   6.053   7.050   4.734
   52POPE  H12R 4907   6.098   7.126   4.667
   52POPE  H12S 4908   5.985   6.988   4.671
   52POPE  C213 4909   6.165   6.958   4.783
   52POPE  H13R 4910   6.126   6.892   4.864
   52POPE  H13S 4911   6.245   7.022   4.827
   52POPE  C214 4912   6.223   6.868   4.673
   52POPE  H14R 4913   6.331   6.849   4.693
   52POPE  H14S 4914   6.221   6.922   4.575
   52POPE  C215 4915   6.155   6.731   4.663
   52POPE  H15R 4916   6.045   6.745   4.656
   52POPE  H15S 4917   6.176   6.677   4.758
   52POPE  C216 4918   6.204   6.645   4.546
   52POPE  H16R 4919   6.183   6.538   4.568
   52POPE  H16S 4920   6.313   6.657   4.534
   52POPE  C217 4921   6.133   6.681   4.415
   52POPE  H17R 4922   6.147   6.790   4.398
   52POPE  H17S 4923   6.023   6.664   4.427
   52POPE  C218 4924   6.182   6.604   4.293
   52POPE  H18R 4925   6.122   6.631   4.203
   52POPE  H18S 4926   6.176   6.495   4.309
   52POPE  H18T 4927   6.288   6.631   4.271
   52POPE   C33 4928   6.110   6.830   5.396
   52POPE   H3X 4929   6.038   6.886   5.459
   52POPE   H3Y 4930   6.055   6.742   5.356
   52POPE   C34 4931   6.156   6.916   5.278
   52POPE   H4X 4932   6.267   6.914   5.269
   52POPE   H4Y 4933   6.127   7.022   5.296
   52POPE   C35 4934   6.096   6.867   5.146
   52POPE   H5X 4935   6.119   6.942   5.067
   52POPE   H5Y 4936   5.986   6.866   5.158
   52POPE   C36 4937   6.149   6.729   5.104
   52POPE   H6X 4938   6.174   6.668   5.194
   52POPE   H6Y 4939   6.244   6.743   5.047
   52POPE   C37 4940   6.054   6.646   5.017
   52POPE   H7X 4941   6.101   6.549   4.992
   52POPE   H7Y 4942   6.039   6.702   4.922
   52POPE   C38 4943   5.917   6.621   5.082
   52POPE   H8X 4944   5.916   6.660   5.187
   52POPE   H8Y 4945   5.898   6.512   5.088
   52POPE   C39 4946   5.805   6.687   5.001
   52POPE   H9X 4947   5.825   6.796   4.989
   52POPE   H9Y 4948   5.709   6.676   5.056
   52POPE  C310 4949   5.791   6.621   4.864
   52POPE  H10X 4950   5.792   6.511   4.880
   52POPE  H10Y 4951   5.877   6.645   4.798
   52POPE  C311 4952   5.659   6.656   4.796
   52POPE  H11X 4953   5.578   6.648   4.871
   52POPE  H11Y 4954   5.643   6.576   4.721
   52POPE  C312 4955   5.651   6.793   4.727
   52POPE  H12X 4956   5.646   6.874   4.803
   52POPE  H12Y 4957   5.556   6.796   4.669
   52POPE  C313 4958   5.763   6.823   4.628
   52POPE  H13X 4959   5.780   6.735   4.562
   52POPE  H13Y 4960   5.855   6.837   4.689
   52POPE  C314 4961   5.741   6.948   4.540
   52POPE  H14X 4962   5.835   6.966   4.483
   52POPE  H14Y 4963   5.723   7.037   4.604
   52POPE  C315 4964   5.625   6.939   4.440
   52POPE  H15X 4965   5.606   6.832   4.417
   52POPE  H15Y 4966   5.657   6.987   4.346
   52POPE  C316 4967   5.496   7.004   4.488
   52POPE  H16X 4968   5.516   7.110   4.513
   52POPE  H16Y 4969   5.455   6.954   4.579
   52POPE  H16Z 4970   5.418   7.000   4.409
   53POPE     N 4971   6.172   0.819   6.427
   53POPE   HN1 4972   6.185   0.759   6.344
   53POPE   HN2 4973   6.229   0.779   6.505
   53POPE   HN3 4974   6.071   0.824   6.453
   53POPE   C12 4975   6.218   0.956   6.384
   53POPE  H12A 4976   6.269   1.006   6.469
   53POPE  H12B 4977   6.127   1.014   6.356
   53POPE   C11 4978   6.306   0.944   6.260
   53POPE  H11A 4979   6.405   0.903   6.289
   53POPE  H11B 4980   6.322   1.045   6.218
   53POPE     P 4981   6.300   0.732   6.107
   53POPE   O13 4982   6.295   0.642   6.225
   53POPE   O14 4983   6.431   0.765   6.048
   53POPE   O11 4984   6.194   0.686   6.000
   53POPE   O12 4985   6.238   0.866   6.162
   53POPE    C1 4986   6.072   0.621   6.040
   53POPE    HA 4987   6.049   0.633   6.148
   53POPE    HB 4988   6.082   0.512   6.021
   53POPE    C2 4989   5.945   0.672   5.961
   53POPE    HS 4990   5.869   0.591   5.960
   53POPE   O21 4991   5.975   0.713   5.826
   53POPE   C21 4992   6.028   0.617   5.753
   53POPE   O22 4993   6.041   0.501   5.787
   53POPE   C22 4994   6.069   0.670   5.616
   53POPE   H2R 4995   6.041   0.777   5.607
   53POPE   H2S 4996   6.011   0.611   5.542
   53POPE    C3 4997   5.884   0.793   6.035
   53POPE    HX 4998   5.849   0.760   6.135
   53POPE    HY 4999   5.795   0.827   5.978
   53POPE   O31 5000   5.988   0.892   6.050
   53POPE   C31 5001   5.976   0.998   5.972
   53POPE   O32 5002   5.869   1.047   5.941
   53POPE   C32 5003   6.113   1.057   5.936
   53POPE   H2X 5004   6.185   1.035   6.018
   53POPE   H2Y 5005   6.098   1.167   5.936
   53POPE   C23 5006   6.220   0.650   5.592
   53POPE   H3R 5007   6.263   0.577   5.663
   53POPE   H3S 5008   6.272   0.747   5.610
   53POPE   C24 5009   6.252   0.598   5.450
   53POPE   H4R 5010   6.169   0.623   5.381
   53POPE   H4S 5011   6.258   0.488   5.454
   53POPE   C25 5012   6.382   0.658   5.394
   53POPE   H5R 5013   6.457   0.665   5.475
   53POPE   H5S 5014   6.361   0.762   5.361
   53POPE   C26 5015   6.443   0.579   5.276
   53POPE   H6R 5016   6.497   0.491   5.317
   53POPE   H6S 5017   6.519   0.643   5.228
   53POPE   C27 5018   6.341   0.528   5.173
   53POPE   H7R 5019   6.286   0.614   5.127
   53POPE   H7S 5020   6.267   0.465   5.225
   53POPE   C28 5021   6.402   0.442   5.060
   53POPE   H8R 5022   6.319   0.407   4.995
   53POPE   H8S 5023   6.445   0.351   5.108
   53POPE   C29 5024   6.507   0.516   4.982
   53POPE   H91 5025   6.599   0.536   5.040
   53POPE  C210 5026   6.502   0.559   4.855
   53POPE  H101 5027   6.589   0.615   4.817
   53POPE  C211 5028   6.391   0.548   4.754
   53POPE  H11R 5029   6.305   0.488   4.791
   53POPE  H11S 5030   6.428   0.499   4.661
   53POPE  C212 5031   6.343   0.690   4.719
   53POPE  H12R 5032   6.429   0.756   4.698
   53POPE  H12S 5033   6.291   0.729   4.810
   53POPE  C213 5034   6.244   0.700   4.603
   53POPE  H13R 5035   6.180   0.790   4.619
   53POPE  H13S 5036   6.176   0.612   4.605
   53POPE  C214 5037   6.313   0.715   4.468
   53POPE  H14R 5038   6.388   0.633   4.458
   53POPE  H14S 5039   6.372   0.809   4.465
   53POPE  C215 5040   6.213   0.710   4.352
   53POPE  H15R 5041   6.140   0.794   4.355
   53POPE  H15S 5042   6.150   0.619   4.365
   53POPE  C216 5043   6.280   0.702   4.214
   53POPE  H16R 5044   6.226   0.627   4.153
   53POPE  H16S 5045   6.385   0.666   4.228
   53POPE  C217 5046   6.283   0.834   4.137
   53POPE  H17R 5047   6.350   0.906   4.189
   53POPE  H17S 5048   6.181   0.877   4.136
   53POPE  C218 5049   6.331   0.815   3.993
   53POPE  H18R 5050   6.271   0.735   3.943
   53POPE  H18S 5051   6.438   0.785   3.991
   53POPE  H18T 5052   6.318   0.908   3.934
   53POPE   C33 5053   6.174   1.012   5.800
   53POPE   H3X 5054   6.100   0.958   5.738
   53POPE   H3Y 5055   6.252   0.935   5.822
   53POPE   C34 5056   6.240   1.129   5.721
   53POPE   H4X 5057   6.350   1.114   5.730
   53POPE   H4Y 5058   6.219   1.223   5.776
   53POPE   C35 5059   6.205   1.152   5.571
   53POPE   H5X 5060   6.132   1.075   5.539
   53POPE   H5Y 5061   6.297   1.131   5.513
   53POPE   C36 5062   6.150   1.292   5.528
   53POPE   H6X 5063   6.196   1.368   5.594
   53POPE   H6Y 5064   6.040   1.294   5.545
   53POPE   C37 5065   6.171   1.343   5.382
   53POPE   H7X 5066   6.270   1.306   5.347
   53POPE   H7Y 5067   6.174   1.454   5.383
   53POPE   C38 5068   6.061   1.304   5.280
   53POPE   H8X 5069   5.967   1.361   5.296
   53POPE   H8Y 5070   6.039   1.197   5.300
   53POPE   C39 5071   6.098   1.299   5.130
   53POPE   H9X 5072   6.205   1.272   5.119
   53POPE   H9Y 5073   6.081   1.397   5.080
   53POPE  C310 5074   6.022   1.186   5.058
   53POPE  H10X 5075   5.913   1.209   5.056
   53POPE  H10Y 5076   6.033   1.092   5.117
   53POPE  C311 5077   6.072   1.152   4.918
   53POPE  H11X 5078   6.031   1.052   4.890
   53POPE  H11Y 5079   6.182   1.143   4.918
   53POPE  C312 5080   6.025   1.253   4.812
   53POPE  H12X 5081   6.083   1.347   4.822
   53POPE  H12Y 5082   5.918   1.278   4.830
   53POPE  C313 5083   6.038   1.198   4.670
   53POPE  H13X 5084   6.012   1.280   4.599
   53POPE  H13Y 5085   5.966   1.115   4.654
   53POPE  C314 5086   6.176   1.141   4.638
   53POPE  H14X 5087   6.183   1.034   4.665
   53POPE  H14Y 5088   6.251   1.194   4.701
   53POPE  C315 5089   6.214   1.164   4.492
   53POPE  H15X 5090   6.323   1.182   4.489
   53POPE  H15Y 5091   6.165   1.257   4.454
   53POPE  C316 5092   6.182   1.048   4.400
   53POPE  H16X 5093   6.234   0.959   4.440
   53POPE  H16Y 5094   6.221   1.067   4.297
   53POPE  H16Z 5095   6.073   1.028   4.394
   54POPE     N 5096   0.731   1.759   6.142
   54POPE   HN1 5097   0.744   1.667   6.187
   54POPE   HN2 5098   0.816   1.791   6.092
   54POPE   HN3 5099   0.699   1.827   6.214
   54POPE   C12 5100   0.618   1.750   6.044
   54POPE  H12A 5101   0.655   1.706   5.950
   54POPE  H12B 5102   0.583   1.853   6.024
   54POPE   C11 5103   0.503   1.665   6.102
   54POPE  H11A 5104   0.525   1.557   6.086
   54POPE  H11B 5105   0.416   1.689   6.038
   54POPE     P 5106   0.437   1.831   6.295
   54POPE   O13 5107   0.570   1.895   6.314
   54POPE   O14 5108   0.347   1.823   6.412
   54POPE   O11 5109   0.365   1.897   6.171
   54POPE   O12 5110   0.474   1.686   6.241
   54POPE    C1 5111   0.222   1.903   6.164
   54POPE    HA 5112   0.189   2.006   6.189
   54POPE    HB 5113   0.170   1.838   6.237
   54POPE    C2 5114   0.164   1.872   6.021
   54POPE    HS 5115   0.053   1.879   6.028
   54POPE   O21 5116   0.201   1.743   5.971
   54POPE   C21 5117   0.174   1.634   6.039
   54POPE   O22 5118   0.126   1.626   6.150
   54POPE   C22 5119   0.224   1.513   5.958
   54POPE   H2R 5120   0.286   1.452   6.028
   54POPE   H2S 5121   0.287   1.546   5.873
   54POPE    C3 5122   0.212   1.978   5.916
   54POPE    HX 5123   0.204   2.078   5.965
   54POPE    HY 5124   0.137   1.979   5.833
   54POPE   O31 5125   0.348   1.960   5.869
   54POPE   C31 5126   0.358   1.893   5.753
   54POPE   O32 5127   0.266   1.845   5.691
   54POPE   C32 5128   0.504   1.889   5.705
   54POPE   H2X 5129   0.559   1.818   5.771
   54POPE   H2Y 5130   0.547   1.990   5.716
   54POPE   C23 5131   0.105   1.429   5.909
   54POPE   H3R 5132   0.017   1.459   5.969
   54POPE   H3S 5133   0.121   1.320   5.925
   54POPE   C24 5134   0.066   1.452   5.763
   54POPE   H4R 5135   0.087   1.558   5.737
   54POPE   H4S 5136  -0.043   1.433   5.754
   54POPE   C25 5137   0.133   1.358   5.665
   54POPE   H5R 5138   0.079   1.260   5.666
   54POPE   H5S 5139   0.238   1.339   5.697
   54POPE   C26 5140   0.135   1.415   5.522
   54POPE   H6R 5141   0.033   1.449   5.493
   54POPE   H6S 5142   0.165   1.335   5.451
   54POPE   C27 5143   0.236   1.529   5.511
   54POPE   H7R 5144   0.321   1.505   5.579
   54POPE   H7S 5145   0.193   1.624   5.548
   54POPE   C28 5146   0.295   1.547   5.371
   54POPE   H8R 5147   0.350   1.454   5.343
   54POPE   H8S 5148   0.373   1.624   5.389
   54POPE   C29 5149   0.204   1.589   5.258
   54POPE   H91 5150   0.117   1.525   5.238
   54POPE  C210 5151   0.225   1.700   5.184
   54POPE  H101 5152   0.156   1.728   5.103
   54POPE  C211 5153   0.342   1.792   5.209
   54POPE  H11R 5154   0.436   1.733   5.216
   54POPE  H11S 5155   0.329   1.839   5.308
   54POPE  C212 5156   0.373   1.906   5.111
   54POPE  H12R 5157   0.448   1.972   5.160
   54POPE  H12S 5158   0.282   1.967   5.094
   54POPE  C213 5159   0.429   1.866   4.974
   54POPE  H13R 5160   0.352   1.810   4.917
   54POPE  H13S 5161   0.518   1.801   4.985
   54POPE  C214 5162   0.467   1.995   4.900
   54POPE  H14R 5163   0.430   2.079   4.962
   54POPE  H14S 5164   0.413   2.002   4.803
   54POPE  C215 5165   0.617   2.017   4.884
   54POPE  H15R 5166   0.669   1.999   4.981
   54POPE  H15S 5167   0.632   2.124   4.856
   54POPE  C216 5168   0.684   1.936   4.775
   54POPE  H16R 5169   0.690   1.829   4.806
   54POPE  H16S 5170   0.788   1.973   4.763
   54POPE  C217 5171   0.613   1.951   4.641
   54POPE  H17R 5172   0.599   2.059   4.618
   54POPE  H17S 5173   0.513   1.905   4.648
   54POPE  C218 5174   0.688   1.883   4.527
   54POPE  H18R 5175   0.741   1.957   4.463
   54POPE  H18S 5176   0.612   1.831   4.465
   54POPE  H18T 5177   0.760   1.808   4.564
   54POPE   C33 5178   0.513   1.841   5.558
   54POPE   H3X 5179   0.459   1.913   5.493
   54POPE   H3Y 5180   0.462   1.742   5.548
   54POPE   C34 5181   0.657   1.827   5.507
   54POPE   H4X 5182   0.711   1.749   5.565
   54POPE   H4Y 5183   0.709   1.923   5.524
   54POPE   C35 5184   0.668   1.794   5.356
   54POPE   H5X 5185   0.766   1.830   5.319
   54POPE   H5Y 5186   0.591   1.853   5.302
   54POPE   C36 5187   0.658   1.644   5.319
   54POPE   H6X 5188   0.563   1.602   5.358
   54POPE   H6Y 5189   0.740   1.587   5.368
   54POPE   C37 5190   0.666   1.617   5.167
   54POPE   H7X 5191   0.767   1.580   5.141
   54POPE   H7Y 5192   0.656   1.716   5.117
   54POPE   C38 5193   0.557   1.524   5.107
   54POPE   H8X 5194   0.546   1.551   4.999
   54POPE   H8Y 5195   0.458   1.542   5.153
   54POPE   C39 5196   0.587   1.374   5.115
   54POPE   H9X 5197   0.571   1.343   5.220
   54POPE   H9Y 5198   0.694   1.358   5.092
   54POPE  C310 5199   0.507   1.281   5.021
   54POPE  H10X 5200   0.401   1.313   5.018
   54POPE  H10Y 5201   0.512   1.179   5.065
   54POPE  C311 5202   0.561   1.265   4.879
   54POPE  H11X 5203   0.672   1.253   4.881
   54POPE  H11Y 5204   0.538   1.358   4.823
   54POPE  C312 5205   0.503   1.145   4.803
   54POPE  H12X 5206   0.393   1.141   4.821
   54POPE  H12Y 5207   0.548   1.051   4.842
   54POPE  C313 5208   0.528   1.158   4.652
   54POPE  H13X 5209   0.633   1.188   4.633
   54POPE  H13Y 5210   0.464   1.241   4.616
   54POPE  C314 5211   0.492   1.032   4.570
   54POPE  H14X 5212   0.400   0.988   4.613
   54POPE  H14Y 5213   0.572   0.956   4.580
   54POPE  C315 5214   0.465   1.062   4.421
   54POPE  H15X 5215   0.392   1.146   4.416
   54POPE  H15Y 5216   0.416   0.974   4.376
   54POPE  C316 5217   0.588   1.099   4.338
   54POPE  H16X 5218   0.642   1.184   4.383
   54POPE  H16Y 5219   0.557   1.128   4.235
   54POPE  H16Z 5220   0.657   1.013   4.331
   55POPE     N 5221   2.714   0.042   6.420
   55POPE   HN1 5222   2.800   0.027   6.364
   55POPE   HN2 5223   2.728   0.127   6.479
   55POPE   HN3 5224   2.698  -0.043   6.477
   55POPE   C12 5225   2.603   0.065   6.320
   55POPE  H12A 5226   2.514   0.102   6.374
   55POPE  H12B 5227   2.579  -0.033   6.274
   55POPE   C11 5228   2.648   0.163   6.209
   55POPE  H11A 5229   2.639   0.266   6.249
   55POPE  H11B 5230   2.578   0.157   6.123
   55POPE     P 5231   2.846   0.006   6.121
   55POPE   O13 5232   2.902  -0.050   6.247
   55POPE   O14 5233   2.935   0.020   6.005
   55POPE   O11 5234   2.723  -0.086   6.086
   55POPE   O12 5235   2.782   0.145   6.165
   55POPE    C1 5236   2.749  -0.228   6.075
   55POPE    HA 5237   2.761  -0.272   6.176
   55POPE    HB 5238   2.843  -0.245   6.019
   55POPE    C2 5239   2.637  -0.310   6.001
   55POPE    HS 5240   2.656  -0.418   6.017
   55POPE   O21 5241   2.639  -0.280   5.861
   55POPE   C21 5242   2.742  -0.337   5.797
   55POPE   O22 5243   2.820  -0.416   5.846
   55POPE   C22 5244   2.754  -0.281   5.656
   55POPE   H2R 5245   2.841  -0.330   5.607
   55POPE   H2S 5246   2.779  -0.174   5.670
   55POPE    C3 5247   2.494  -0.285   6.058
   55POPE    HX 5248   2.488  -0.327   6.160
   55POPE    HY 5249   2.422  -0.342   5.995
   55POPE   O31 5250   2.466  -0.143   6.062
   55POPE   C31 5251   2.368  -0.102   5.983
   55POPE   O32 5252   2.259  -0.154   5.976
   55POPE   C32 5253   2.408   0.031   5.918
   55POPE   H2X 5254   2.510   0.059   5.953
   55POPE   H2Y 5255   2.334   0.105   5.955
   55POPE   C23 5256   2.627  -0.299   5.572
   55POPE   H3R 5257   2.620  -0.215   5.500
   55POPE   H3S 5258   2.535  -0.297   5.634
   55POPE   C24 5259   2.631  -0.427   5.489
   55POPE   H4R 5260   2.642  -0.513   5.559
   55POPE   H4S 5261   2.721  -0.427   5.424
   55POPE   C25 5262   2.505  -0.446   5.404
   55POPE   H5R 5263   2.415  -0.445   5.470
   55POPE   H5S 5264   2.512  -0.546   5.358
   55POPE   C26 5265   2.487  -0.346   5.289
   55POPE   H6R 5266   2.477  -0.243   5.330
   55POPE   H6S 5267   2.393  -0.371   5.237
   55POPE   C27 5268   2.602  -0.351   5.187
   55POPE   H7R 5269   2.626  -0.458   5.166
   55POPE   H7S 5270   2.693  -0.305   5.232
   55POPE   C28 5271   2.571  -0.283   5.053
   55POPE   H8R 5272   2.495  -0.344   4.999
   55POPE   H8S 5273   2.664  -0.289   4.992
   55POPE   C29 5274   2.522  -0.141   5.066
   55POPE   H91 5275   2.460  -0.120   5.155
   55POPE  C210 5276   2.547  -0.042   4.980
   55POPE  H101 5277   2.506   0.059   5.000
   55POPE  C211 5278   2.628  -0.053   4.854
   55POPE  H11R 5279   2.676  -0.152   4.841
   55POPE  H11S 5280   2.710   0.023   4.854
   55POPE  C212 5281   2.537  -0.029   4.733
   55POPE  H12R 5282   2.505   0.077   4.733
   55POPE  H12S 5283   2.446  -0.093   4.742
   55POPE  C213 5284   2.602  -0.062   4.598
   55POPE  H13R 5285   2.540  -0.016   4.518
   55POPE  H13S 5286   2.601  -0.172   4.583
   55POPE  C214 5287   2.746  -0.011   4.586
   55POPE  H14R 5288   2.812  -0.070   4.653
   55POPE  H14S 5289   2.749   0.095   4.621
   55POPE  C215 5290   2.803  -0.019   4.443
   55POPE  H15R 5291   2.909   0.014   4.447
   55POPE  H15S 5292   2.748   0.052   4.377
   55POPE  C216 5293   2.797  -0.161   4.384
   55POPE  H16R 5294   2.798  -0.234   4.468
   55POPE  H16S 5295   2.888  -0.179   4.323
   55POPE  C217 5296   2.674  -0.182   4.296
   55POPE  H17R 5297   2.586  -0.133   4.342
   55POPE  H17S 5298   2.651  -0.290   4.288
   55POPE  C218 5299   2.693  -0.126   4.155
   55POPE  H18R 5300   2.596  -0.123   4.101
   55POPE  H18S 5301   2.763  -0.189   4.096
   55POPE  H18T 5302   2.734  -0.023   4.160
   55POPE   C33 5303   2.408   0.031   5.763
   55POPE   H3X 5304   2.359   0.125   5.728
   55POPE   H3Y 5305   2.349  -0.054   5.724
   55POPE   C34 5306   2.550   0.030   5.703
   55POPE   H4X 5307   2.598  -0.066   5.730
   55POPE   H4Y 5308   2.610   0.111   5.749
   55POPE   C35 5309   2.556   0.050   5.550
   55POPE   H5X 5310   2.506   0.146   5.523
   55POPE   H5Y 5311   2.499  -0.031   5.500
   55POPE   C36 5312   2.700   0.054   5.496
   55POPE   H6X 5313   2.751  -0.041   5.523
   55POPE   H6Y 5314   2.756   0.137   5.544
   55POPE   C37 5315   2.711   0.066   5.343
   55POPE   H7X 5316   2.683   0.169   5.311
   55POPE   H7Y 5317   2.640  -0.005   5.296
   55POPE   C38 5318   2.853   0.033   5.292
   55POPE   H8X 5319   2.886  -0.063   5.337
   55POPE   H8Y 5320   2.923   0.112   5.324
   55POPE   C39 5321   2.858   0.018   5.139
   55POPE   H9X 5322   2.818   0.111   5.094
   55POPE   H9Y 5323   2.790  -0.065   5.109
   55POPE  C310 5324   2.997  -0.011   5.080
   55POPE  H10X 5325   3.009  -0.120   5.068
   55POPE  H10Y 5326   3.076   0.025   5.149
   55POPE  C311 5327   3.013   0.059   4.944
   55POPE  H11X 5328   3.039   0.166   4.962
   55POPE  H11Y 5329   2.915   0.057   4.892
   55POPE  C312 5330   3.116  -0.003   4.849
   55POPE  H12X 5331   3.086  -0.108   4.828
   55POPE  H12Y 5332   3.217  -0.004   4.895
   55POPE  C313 5333   3.120   0.075   4.717
   55POPE  H13X 5334   3.171   0.172   4.733
   55POPE  H13Y 5335   3.016   0.097   4.685
   55POPE  C314 5336   3.186  -0.002   4.602
   55POPE  H14X 5337   3.128  -0.094   4.582
   55POPE  H14Y 5338   3.289  -0.032   4.630
   55POPE  C315 5339   3.192   0.082   4.473
   55POPE  H15X 5340   3.265   0.165   4.487
   55POPE  H15Y 5341   3.093   0.128   4.455
   55POPE  C316 5342   3.232   0.000   4.350
   55POPE  H16X 5343   3.241   0.066   4.261
   55POPE  H16Y 5344   3.155  -0.077   4.329
   55POPE  H16Z 5345   3.329  -0.051   4.366
   56POPE     N 5346   3.623   3.835   2.318
   56POPE   HN1 5347   3.602   3.936   2.332
   56POPE   HN2 5348   3.618   3.813   2.216
   56POPE   HN3 5349   3.556   3.775   2.370
   56POPE   C12 5350   3.760   3.811   2.373
   56POPE  H12A 5351   3.792   3.708   2.346
   56POPE  H12B 5352   3.753   3.818   2.484
   56POPE   C11 5353   3.857   3.918   2.320
   56POPE  H11A 5354   3.880   3.896   2.214
   56POPE  H11B 5355   3.952   3.911   2.378
   56POPE     P 5356   3.875   4.175   2.281
   56POPE   O13 5357   3.802   4.219   2.159
   56POPE   O14 5358   4.018   4.141   2.260
   56POPE   O11 5359   3.854   4.279   2.397
   56POPE   O12 5360   3.798   4.047   2.334
   56POPE    C1 5361   3.747   4.267   2.491
   56POPE    HA 5362   3.770   4.190   2.568
   56POPE    HB 5363   3.653   4.236   2.440
   56POPE    C2 5364   3.717   4.403   2.561
   56POPE    HS 5365   3.751   4.485   2.494
   56POPE   O21 5366   3.779   4.415   2.690
   56POPE   C21 5367   3.910   4.432   2.693
   56POPE   O22 5368   3.983   4.448   2.597
   56POPE   C22 5369   3.955   4.426   2.839
   56POPE   H2R 5370   3.866   4.434   2.906
   56POPE   H2S 5371   4.021   4.513   2.857
   56POPE    C3 5372   3.564   4.423   2.585
   56POPE    HX 5373   3.509   4.401   2.491
   56POPE    HY 5374   3.553   4.531   2.609
   56POPE   O31 5375   3.515   4.343   2.695
   56POPE   C31 5376   3.389   4.370   2.730
   56POPE   O32 5377   3.305   4.416   2.655
   56POPE   C32 5378   3.375   4.348   2.881
   56POPE   H2X 5379   3.456   4.407   2.929
   56POPE   H2Y 5380   3.393   4.241   2.903
   56POPE   C23 5381   4.031   4.294   2.868
   56POPE   H3R 5382   4.066   4.294   2.973
   56POPE   H3S 5383   4.119   4.289   2.801
   56POPE   C24 5384   3.943   4.171   2.843
   56POPE   H4R 5385   3.900   4.177   2.741
   56POPE   H4S 5386   3.858   4.172   2.914
   56POPE   C25 5387   4.019   4.037   2.850
   56POPE   H5R 5388   4.055   4.016   2.952
   56POPE   H5S 5389   4.109   4.048   2.785
   56POPE   C26 5390   3.935   3.921   2.794
   56POPE   H6R 5391   4.005   3.844   2.754
   56POPE   H6S 5392   3.876   3.958   2.707
   56POPE   C27 5393   3.841   3.849   2.893
   56POPE   H7R 5394   3.899   3.766   2.939
   56POPE   H7S 5395   3.759   3.801   2.836
   56POPE   C28 5396   3.781   3.936   3.005
   56POPE   H8R 5397   3.704   4.004   2.962
   56POPE   H8S 5398   3.861   4.000   3.049
   56POPE   C29 5399   3.725   3.854   3.118
   56POPE   H91 5400   3.725   3.745   3.102
   56POPE  C210 5401   3.676   3.905   3.232
   56POPE  H101 5402   3.637   3.836   3.308
   56POPE  C211 5403   3.669   4.051   3.267
   56POPE  H11R 5404   3.626   4.109   3.182
   56POPE  H11S 5405   3.771   4.092   3.286
   56POPE  C212 5406   3.582   4.077   3.392
   56POPE  H12R 5407   3.480   4.035   3.377
   56POPE  H12S 5408   3.570   4.187   3.405
   56POPE  C213 5409   3.642   4.019   3.520
   56POPE  H13R 5410   3.739   4.070   3.541
   56POPE  H13S 5411   3.664   3.911   3.506
   56POPE  C214 5412   3.551   4.033   3.643
   56POPE  H14R 5413   3.448   4.002   3.615
   56POPE  H14S 5414   3.547   4.140   3.672
   56POPE  C215 5415   3.599   3.948   3.761
   56POPE  H15R 5416   3.703   3.980   3.786
   56POPE  H15S 5417   3.603   3.841   3.731
   56POPE  C216 5418   3.512   3.964   3.886
   56POPE  H16R 5419   3.420   3.903   3.873
   56POPE  H16S 5420   3.482   4.070   3.896
   56POPE  C217 5421   3.582   3.920   4.015
   56POPE  H17R 5422   3.513   3.940   4.100
   56POPE  H17S 5423   3.672   3.984   4.030
   56POPE  C218 5424   3.623   3.773   4.019
   56POPE  H18R 5425   3.535   3.707   4.004
   56POPE  H18S 5426   3.670   3.748   4.116
   56POPE  H18T 5427   3.697   3.751   3.938
   56POPE   C33 5428   3.240   4.391   2.943
   56POPE   H3X 5429   3.161   4.318   2.915
   56POPE   H3Y 5430   3.207   4.490   2.904
   56POPE   C34 5431   3.248   4.394   3.096
   56POPE   H4X 5432   3.267   4.499   3.129
   56POPE   H4Y 5433   3.335   4.332   3.127
   56POPE   C35 5434   3.124   4.346   3.173
   56POPE   H5X 5435   3.102   4.241   3.145
   56POPE   H5Y 5436   3.036   4.407   3.142
   56POPE   C36 5437   3.142   4.358   3.325
   56POPE   H6X 5438   3.046   4.332   3.375
   56POPE   H6Y 5439   3.166   4.463   3.351
   56POPE   C37 5440   3.253   4.266   3.382
   56POPE   H7X 5441   3.349   4.284   3.330
   56POPE   H7Y 5442   3.223   4.161   3.361
   56POPE   C38 5443   3.277   4.283   3.533
   56POPE   H8X 5444   3.314   4.186   3.574
   56POPE   H8Y 5445   3.181   4.307   3.584
   56POPE   C39 5446   3.384   4.387   3.566
   56POPE   H9X 5447   3.355   4.484   3.521
   56POPE   H9Y 5448   3.479   4.355   3.518
   56POPE  C310 5449   3.410   4.405   3.717
   56POPE  H10X 5450   3.505   4.461   3.728
   56POPE  H10Y 5451   3.424   4.306   3.766
   56POPE  C311 5452   3.299   4.484   3.789
   56POPE  H11X 5453   3.207   4.423   3.794
   56POPE  H11Y 5454   3.276   4.573   3.727
   56POPE  C312 5455   3.340   4.532   3.929
   56POPE  H12X 5456   3.322   4.642   3.933
   56POPE  H12Y 5457   3.448   4.516   3.946
   56POPE  C313 5458   3.259   4.469   4.044
   56POPE  H13X 5459   3.152   4.470   4.014
   56POPE  H13Y 5460   3.268   4.531   4.135
   56POPE  C314 5461   3.299   4.324   4.078
   56POPE  H14X 5462   3.338   4.273   3.988
   56POPE  H14Y 5463   3.206   4.272   4.109
   56POPE  C315 5464   3.398   4.310   4.195
   56POPE  H15X 5465   3.398   4.204   4.227
   56POPE  H15Y 5466   3.362   4.370   4.281
   56POPE  C316 5467   3.543   4.349   4.162
   56POPE  H16X 5468   3.549   4.457   4.136
   56POPE  H16Y 5469   3.580   4.289   4.076
   56POPE  H16Z 5470   3.609   4.331   4.249
   57POPE     N 5471   4.632   3.487   2.191
   57POPE   HN1 5472   4.653   3.500   2.292
   57POPE   HN2 5473   4.720   3.481   2.135
   57POPE   HN3 5474   4.582   3.573   2.162
   57POPE   C12 5475   4.542   3.367   2.174
   57POPE  H12A 5476   4.601   3.275   2.192
   57POPE  H12B 5477   4.504   3.368   2.070
   57POPE   C11 5478   4.423   3.376   2.270
   57POPE  H11A 5479   4.457   3.363   2.375
   57POPE  H11B 5480   4.352   3.293   2.248
   57POPE     P 5481   4.232   3.537   2.343
   57POPE   O13 5482   4.199   3.415   2.418
   57POPE   O14 5483   4.130   3.590   2.249
   57POPE   O11 5484   4.284   3.651   2.440
   57POPE   O12 5485   4.359   3.503   2.253
   57POPE    C1 5486   4.405   3.726   2.423
   57POPE    HA 5487   4.380   3.829   2.392
   57POPE    HB 5488   4.472   3.683   2.345
   57POPE    C2 5489   4.490   3.735   2.554
   57POPE    HS 5490   4.589   3.780   2.529
   57POPE   O21 5491   4.509   3.608   2.616
   57POPE   C21 5492   4.589   3.521   2.564
   57POPE   O22 5493   4.641   3.526   2.453
   57POPE   C22 5494   4.602   3.403   2.661
   57POPE   H2R 5495   4.706   3.401   2.699
   57POPE   H2S 5496   4.582   3.311   2.602
   57POPE    C3 5497   4.424   3.827   2.663
   57POPE    HX 5498   4.315   3.804   2.660
   57POPE    HY 5499   4.436   3.934   2.634
   57POPE   O31 5500   4.469   3.804   2.799
   57POPE   C31 5501   4.601   3.810   2.820
   57POPE   O32 5502   4.684   3.843   2.739
   57POPE   C32 5503   4.637   3.769   2.963
   57POPE   H2X 5504   4.708   3.846   3.003
   57POPE   H2Y 5505   4.692   3.673   2.956
   57POPE   C23 5506   4.501   3.412   2.778
   57POPE   H3R 5507   4.402   3.444   2.739
   57POPE   H3S 5508   4.534   3.491   2.850
   57POPE   C24 5509   4.475   3.281   2.852
   57POPE   H4R 5510   4.562   3.252   2.914
   57POPE   H4S 5511   4.458   3.201   2.777
   57POPE   C25 5512   4.348   3.293   2.938
   57POPE   H5R 5513   4.309   3.191   2.959
   57POPE   H5S 5514   4.270   3.344   2.878
   57POPE   C26 5515   4.370   3.368   3.071
   57POPE   H6R 5516   4.415   3.467   3.047
   57POPE   H6S 5517   4.445   3.314   3.132
   57POPE   C27 5518   4.244   3.393   3.156
   57POPE   H7R 5519   4.270   3.464   3.238
   57POPE   H7S 5520   4.213   3.299   3.208
   57POPE   C28 5521   4.122   3.448   3.080
   57POPE   H8R 5522   4.039   3.465   3.151
   57POPE   H8S 5523   4.086   3.369   3.010
   57POPE   C29 5524   4.157   3.572   3.001
   57POPE   H91 5525   4.199   3.549   2.902
   57POPE  C210 5526   4.145   3.702   3.034
   57POPE  H101 5527   4.176   3.773   2.956
   57POPE  C211 5528   4.093   3.773   3.157
   57POPE  H11R 5529   3.997   3.820   3.129
   57POPE  H11S 5530   4.162   3.857   3.179
   57POPE  C212 5531   4.067   3.705   3.294
   57POPE  H12R 5532   4.163   3.675   3.340
   57POPE  H12S 5533   4.006   3.613   3.281
   57POPE  C213 5534   3.990   3.801   3.386
   57POPE  H13R 5535   3.882   3.775   3.386
   57POPE  H13S 5536   3.998   3.903   3.342
   57POPE  C214 5537   4.041   3.811   3.530
   57POPE  H14R 5538   4.150   3.834   3.527
   57POPE  H14S 5539   4.028   3.715   3.584
   57POPE  C215 5540   3.968   3.924   3.605
   57POPE  H15R 5541   3.872   3.886   3.646
   57POPE  H15S 5542   3.944   4.003   3.531
   57POPE  C216 5543   4.050   3.993   3.715
   57POPE  H16R 5544   4.145   4.030   3.671
   57POPE  H16S 5545   4.076   3.919   3.795
   57POPE  C217 5546   3.975   4.112   3.776
   57POPE  H17R 5547   3.886   4.074   3.831
   57POPE  H17S 5548   3.938   4.176   3.694
   57POPE  C218 5549   4.059   4.197   3.872
   57POPE  H18R 5550   4.098   4.135   3.955
   57POPE  H18S 5551   3.997   4.279   3.914
   57POPE  H18T 5552   4.145   4.242   3.818
   57POPE   C33 5553   4.519   3.753   3.061
   57POPE   H3X 5554   4.440   3.689   3.015
   57POPE   H3Y 5555   4.473   3.852   3.082
   57POPE   C34 5556   4.562   3.687   3.192
   57POPE   H4X 5557   4.645   3.744   3.239
   57POPE   H4Y 5558   4.600   3.585   3.168
   57POPE   C35 5559   4.445   3.674   3.290
   57POPE   H5X 5560   4.458   3.585   3.355
   57POPE   H5Y 5561   4.353   3.658   3.229
   57POPE   C36 5562   4.426   3.798   3.377
   57POPE   H6X 5563   4.317   3.816   3.391
   57POPE   H6Y 5564   4.466   3.888   3.326
   57POPE   C37 5565   4.488   3.782   3.516
   57POPE   H7X 5566   4.599   3.778   3.507
   57POPE   H7Y 5567   4.453   3.687   3.560
   57POPE   C38 5568   4.448   3.898   3.609
   57POPE   H8X 5569   4.337   3.902   3.617
   57POPE   H8Y 5570   4.480   3.992   3.559
   57POPE   C39 5571   4.511   3.891   3.749
   57POPE   H9X 5572   4.474   3.977   3.808
   57POPE   H9Y 5573   4.621   3.901   3.739
   57POPE  C310 5574   4.479   3.762   3.824
   57POPE  H10X 5575   4.525   3.767   3.925
   57POPE  H10Y 5576   4.525   3.675   3.772
   57POPE  C311 5577   4.328   3.736   3.841
   57POPE  H11X 5578   4.276   3.736   3.743
   57POPE  H11Y 5579   4.286   3.818   3.903
   57POPE  C312 5580   4.303   3.601   3.909
   57POPE  H12X 5581   4.377   3.591   3.991
   57POPE  H12Y 5582   4.323   3.518   3.837
   57POPE  C313 5583   4.160   3.589   3.965
   57POPE  H13X 5584   4.091   3.572   3.880
   57POPE  H13Y 5585   4.130   3.684   4.014
   57POPE  C314 5586   4.147   3.475   4.066
   57POPE  H14X 5587   4.217   3.393   4.039
   57POPE  H14Y 5588   4.044   3.434   4.061
   57POPE  C315 5589   4.172   3.518   4.212
   57POPE  H15X 5590   4.166   3.427   4.276
   57POPE  H15Y 5591   4.090   3.586   4.243
   57POPE  C316 5592   4.305   3.589   4.240
   57POPE  H16X 5593   4.390   3.525   4.209
   57POPE  H16Y 5594   4.314   3.611   4.348
   57POPE  H16Z 5595   4.311   3.685   4.184
   58POPE     N 5596   5.143   5.205   2.402
   58POPE   HN1 5597   5.170   5.292   2.352
   58POPE   HN2 5598   5.222   5.172   2.462
   58POPE   HN3 5599   5.118   5.131   2.333
   58POPE   C12 5600   5.016   5.228   2.478
   58POPE  H12A 5601   5.036   5.301   2.559
   58POPE  H12B 5602   4.985   5.131   2.523
   58POPE   C11 5603   4.905   5.279   2.383
   58POPE  H11A 5604   4.922   5.388   2.368
   58POPE  H11B 5605   4.806   5.269   2.433
   58POPE     P 5606   4.875   5.061   2.240
   58POPE   O13 5607   5.003   4.997   2.279
   58POPE   O14 5608   4.825   5.034   2.104
   58POPE   O11 5609   4.760   5.040   2.346
   58POPE   O12 5610   4.905   5.215   2.255
   58POPE    C1 5611   4.760   4.941   2.448
   58POPE    HA 5612   4.861   4.922   2.491
   58POPE    HB 5613   4.721   4.845   2.407
   58POPE    C2 5614   4.665   4.984   2.564
   58POPE    HS 5615   4.567   5.007   2.517
   58POPE   O21 5616   4.722   5.099   2.632
   58POPE   C21 5617   4.632   5.184   2.681
   58POPE   O22 5618   4.512   5.182   2.663
   58POPE   C22 5619   4.703   5.292   2.762
   58POPE   H2R 5620   4.702   5.385   2.701
   58POPE   H2S 5621   4.809   5.262   2.779
   58POPE    C3 5622   4.641   4.868   2.665
   58POPE    HX 5623   4.581   4.789   2.616
   58POPE    HY 5624   4.580   4.912   2.748
   58POPE   O31 5625   4.764   4.814   2.717
   58POPE   C31 5626   4.746   4.741   2.827
   58POPE   O32 5627   4.639   4.701   2.870
   58POPE   C32 5628   4.879   4.729   2.897
   58POPE   H2X 5629   4.950   4.687   2.823
   58POPE   H2Y 5630   4.868   4.657   2.982
   58POPE   C23 5631   4.633   5.319   2.898
   58POPE   H3R 5632   4.527   5.351   2.882
   58POPE   H3S 5633   4.686   5.404   2.946
   58POPE   C24 5634   4.636   5.199   2.994
   58POPE   H4R 5635   4.736   5.150   2.986
   58POPE   H4S 5636   4.561   5.123   2.965
   58POPE   C25 5637   4.615   5.239   3.141
   58POPE   H5R 5638   4.506   5.242   3.164
   58POPE   H5S 5639   4.655   5.342   3.157
   58POPE   C26 5640   4.688   5.147   3.241
   58POPE   H6R 5641   4.666   5.180   3.344
   58POPE   H6S 5642   4.797   5.160   3.224
   58POPE   C27 5643   4.654   4.998   3.227
   58POPE   H7R 5644   4.687   4.960   3.128
   58POPE   H7S 5645   4.544   4.989   3.230
   58POPE   C28 5646   4.713   4.909   3.339
   58POPE   H8R 5647   4.677   4.806   3.320
   58POPE   H8S 5648   4.666   4.943   3.434
   58POPE   C29 5649   4.863   4.905   3.351
   58POPE   H91 5650   4.918   4.897   3.256
   58POPE  C210 5651   4.934   4.911   3.465
   58POPE  H101 5652   5.044   4.907   3.460
   58POPE  C211 5653   4.877   4.923   3.604
   58POPE  H11R 5654   4.815   5.015   3.609
   58POPE  H11S 5655   4.959   4.936   3.678
   58POPE  C212 5656   4.791   4.803   3.651
   58POPE  H12R 5657   4.859   4.722   3.683
   58POPE  H12S 5658   4.728   4.763   3.569
   58POPE  C213 5659   4.699   4.842   3.768
   58POPE  H13R 5660   4.758   4.902   3.840
   58POPE  H13S 5661   4.665   4.750   3.820
   58POPE  C214 5662   4.575   4.922   3.724
   58POPE  H14R 5663   4.499   4.852   3.682
   58POPE  H14S 5664   4.603   4.993   3.643
   58POPE  C215 5665   4.513   5.004   3.838
   58POPE  H15R 5666   4.418   5.051   3.804
   58POPE  H15S 5667   4.584   5.087   3.861
   58POPE  C216 5668   4.490   4.922   3.965
   58POPE  H16R 5669   4.588   4.885   4.001
   58POPE  H16S 5670   4.427   4.834   3.941
   58POPE  C217 5671   4.425   4.999   4.082
   58POPE  H17R 5672   4.462   4.953   4.176
   58POPE  H17S 5673   4.315   4.983   4.081
   58POPE  C218 5674   4.452   5.150   4.084
   58POPE  H18R 5675   4.561   5.171   4.074
   58POPE  H18S 5676   4.416   5.195   4.179
   58POPE  H18T 5677   4.400   5.200   4.000
   58POPE   C33 5678   4.926   4.867   2.948
   58POPE   H3X 5679   4.898   4.877   3.055
   58POPE   H3Y 5680   4.875   4.950   2.895
   58POPE   C34 5681   5.077   4.885   2.932
   58POPE   H4X 5682   5.125   4.785   2.928
   58POPE   H4Y 5683   5.118   4.936   3.022
   58POPE   C35 5684   5.114   4.963   2.805
   58POPE   H5X 5685   5.067   4.914   2.717
   58POPE   H5Y 5686   5.224   4.956   2.792
   58POPE   C36 5687   5.072   5.112   2.806
   58POPE   H6X 5688   4.963   5.119   2.787
   58POPE   H6Y 5689   5.125   5.161   2.722
   58POPE   C37 5690   5.107   5.191   2.933
   58POPE   H7X 5691   5.150   5.288   2.903
   58POPE   H7Y 5692   5.183   5.135   2.992
   58POPE   C38 5693   4.989   5.226   3.025
   58POPE   H8X 5694   4.947   5.134   3.071
   58POPE   H8Y 5695   4.911   5.274   2.963
   58POPE   C39 5696   5.027   5.328   3.135
   58POPE   H9X 5697   4.934   5.372   3.176
   58POPE   H9Y 5698   5.084   5.411   3.087
   58POPE  C310 5699   5.111   5.270   3.249
   58POPE  H10X 5700   5.191   5.342   3.276
   58POPE  H10Y 5701   5.161   5.177   3.213
   58POPE  C311 5702   5.032   5.237   3.376
   58POPE  H11X 5703   5.100   5.183   3.446
   58POPE  H11Y 5704   4.949   5.167   3.353
   58POPE  C312 5705   4.976   5.360   3.450
   58POPE  H12X 5706   4.898   5.407   3.385
   58POPE  H12Y 5707   5.056   5.434   3.467
   58POPE  C313 5708   4.910   5.323   3.584
   58POPE  H13X 5709   4.845   5.235   3.569
   58POPE  H13Y 5710   4.846   5.408   3.616
   58POPE  C314 5711   5.012   5.295   3.695
   58POPE  H14X 5712   5.062   5.391   3.722
   58POPE  H14Y 5713   5.092   5.228   3.656
   58POPE  C315 5714   4.953   5.230   3.820
   58POPE  H15X 5715   5.025   5.244   3.903
   58POPE  H15Y 5716   4.945   5.120   3.803
   58POPE  C316 5717   4.815   5.282   3.862
   58POPE  H16X 5718   4.818   5.393   3.875
   58POPE  H16Y 5719   4.783   5.235   3.957
   58POPE  H16Z 5720   4.739   5.258   3.785
   59POPE     N 5721   2.386   3.800   2.166
   59POPE   HN1 5722   2.375   3.887   2.112
   59POPE   HN2 5723   2.359   3.826   2.263
   59POPE   HN3 5724   2.485   3.768   2.161
   59POPE   C12 5725   2.291   3.695   2.115
   59POPE  H12A 5726   2.348   3.600   2.104
   59POPE  H12B 5727   2.255   3.728   2.016
   59POPE   C11 5728   2.170   3.673   2.209
   59POPE  H11A 5729   2.203   3.638   2.309
   59POPE  H11B 5730   2.109   3.590   2.167
   59POPE     P 5731   2.102   3.890   2.337
   59POPE   O13 5732   2.019   4.008   2.307
   59POPE   O14 5733   2.247   3.910   2.356
   59POPE   O11 5734   2.044   3.802   2.454
   59POPE   O12 5735   2.088   3.790   2.214
   59POPE    C1 5736   1.905   3.771   2.462
   59POPE    HA 5737   1.895   3.670   2.506
   59POPE    HB 5738   1.855   3.769   2.362
   59POPE    C2 5739   1.830   3.870   2.555
   59POPE    HS 5740   1.835   3.971   2.508
   59POPE   O21 5741   1.894   3.865   2.683
   59POPE   C21 5742   1.927   3.979   2.739
   59POPE   O22 5743   1.911   4.090   2.692
   59POPE   C22 5744   1.990   3.950   2.875
   59POPE   H2R 5745   1.918   3.889   2.934
   59POPE   H2S 5746   2.007   4.046   2.927
   59POPE    C3 5747   1.681   3.828   2.570
   59POPE    HX 5748   1.636   3.828   2.468
   59POPE    HY 5749   1.625   3.903   2.629
   59POPE   O31 5750   1.672   3.695   2.625
   59POPE   C31 5751   1.676   3.691   2.758
   59POPE   O32 5752   1.662   3.787   2.833
   59POPE   C32 5753   1.704   3.548   2.801
   59POPE   H2X 5754   1.803   3.518   2.760
   59POPE   H2Y 5755   1.626   3.483   2.757
   59POPE   C23 5756   2.123   3.874   2.855
   59POPE   H3R 5757   2.191   3.940   2.797
   59POPE   H3S 5758   2.106   3.783   2.794
   59POPE   C24 5759   2.194   3.833   2.984
   59POPE   H4R 5760   2.136   3.753   3.036
   59POPE   H4S 5761   2.201   3.920   3.053
   59POPE   C25 5762   2.334   3.782   2.949
   59POPE   H5R 5763   2.383   3.861   2.886
   59POPE   H5S 5764   2.327   3.691   2.886
   59POPE   C26 5765   2.426   3.758   3.069
   59POPE   H6R 5766   2.425   3.848   3.134
   59POPE   H6S 5767   2.528   3.744   3.028
   59POPE   C27 5768   2.395   3.635   3.155
   59POPE   H7R 5769   2.297   3.650   3.205
   59POPE   H7S 5770   2.472   3.632   3.236
   59POPE   C28 5771   2.403   3.502   3.078
   59POPE   H8R 5772   2.445   3.425   3.147
   59POPE   H8S 5773   2.476   3.511   2.995
   59POPE   C29 5774   2.271   3.451   3.028
   59POPE   H91 5775   2.256   3.450   2.919
   59POPE  C210 5776   2.173   3.410   3.110
   59POPE  H101 5777   2.078   3.374   3.069
   59POPE  C211 5778   2.185   3.411   3.261
   59POPE  H11R 5779   2.160   3.512   3.298
   59POPE  H11S 5780   2.288   3.388   3.295
   59POPE  C212 5781   2.090   3.312   3.328
   59POPE  H12R 5782   2.124   3.208   3.307
   59POPE  H12S 5783   1.989   3.324   3.285
   59POPE  C213 5784   2.081   3.335   3.479
   59POPE  H13R 5785   2.183   3.337   3.523
   59POPE  H13S 5786   2.026   3.248   3.523
   59POPE  C214 5787   2.005   3.464   3.516
   59POPE  H14R 5788   1.924   3.476   3.441
   59POPE  H14S 5789   2.074   3.550   3.504
   59POPE  C215 5790   1.941   3.465   3.656
   59POPE  H15R 5791   2.007   3.516   3.730
   59POPE  H15S 5792   1.936   3.359   3.688
   59POPE  C216 5793   1.798   3.525   3.659
   59POPE  H16R 5794   1.745   3.500   3.565
   59POPE  H16S 5795   1.804   3.635   3.665
   59POPE  C217 5796   1.710   3.475   3.775
   59POPE  H17R 5797   1.675   3.372   3.751
   59POPE  H17S 5798   1.619   3.539   3.780
   59POPE  C218 5799   1.778   3.473   3.911
   59POPE  H18R 5800   1.706   3.445   3.991
   59POPE  H18S 5801   1.820   3.573   3.934
   59POPE  H18T 5802   1.861   3.399   3.912
   59POPE   C33 5803   1.703   3.533   2.954
   59POPE   H3X 5804   1.690   3.425   2.978
   59POPE   H3Y 5805   1.618   3.587   3.000
   59POPE   C34 5806   1.835   3.575   3.020
   59POPE   H4X 5807   1.850   3.685   3.010
   59POPE   H4Y 5808   1.919   3.525   2.967
   59POPE   C35 5809   1.840   3.534   3.168
   59POPE   H5X 5810   1.944   3.544   3.204
   59POPE   H5Y 5811   1.814   3.427   3.176
   59POPE   C36 5812   1.747   3.616   3.258
   59POPE   H6X 5813   1.743   3.566   3.358
   59POPE   H6Y 5814   1.643   3.614   3.218
   59POPE   C37 5815   1.792   3.761   3.279
   59POPE   H7X 5816   1.727   3.806   3.358
   59POPE   H7Y 5817   1.777   3.819   3.186
   59POPE   C38 5818   1.939   3.772   3.324
   59POPE   H8X 5819   2.007   3.758   3.237
   59POPE   H8Y 5820   1.959   3.690   3.396
   59POPE   C39 5821   1.970   3.904   3.394
   59POPE   H9X 5822   1.898   3.918   3.477
   59POPE   H9Y 5823   1.954   3.985   3.320
   59POPE  C310 5824   2.113   3.918   3.449
   59POPE  H10X 5825   2.115   4.015   3.502
   59POPE  H10Y 5826   2.184   3.923   3.363
   59POPE  C311 5827   2.164   3.811   3.547
   59POPE  H11X 5828   2.261   3.846   3.589
   59POPE  H11Y 5829   2.187   3.719   3.489
   59POPE  C312 5830   2.069   3.777   3.662
   59POPE  H12X 5831   2.118   3.700   3.726
   59POPE  H12Y 5832   1.977   3.732   3.619
   59POPE  C313 5833   2.026   3.894   3.751
   59POPE  H13X 5834   1.967   3.966   3.690
   59POPE  H13Y 5835   2.118   3.948   3.784
   59POPE  C314 5836   1.944   3.855   3.875
   59POPE  H14X 5837   1.858   3.792   3.845
   59POPE  H14Y 5838   1.903   3.948   3.919
   59POPE  C315 5839   2.025   3.783   3.984
   59POPE  H15X 5840   2.117   3.841   4.004
   59POPE  H15Y 5841   2.056   3.683   3.947
   59POPE  C316 5842   1.949   3.767   4.117
   59POPE  H16X 5843   1.918   3.866   4.156
   59POPE  H16Y 5844   2.013   3.718   4.193
   59POPE  H16Z 5845   1.858   3.705   4.103
   60POPE     N 5846   5.009   2.369   2.336
   60POPE   HN1 5847   5.045   2.332   2.427
   60POPE   HN2 5848   4.999   2.472   2.345
   60POPE   HN3 5849   4.916   2.327   2.317
   60POPE   C12 5850   5.106   2.332   2.227
   60POPE  H12A 5851   5.062   2.364   2.130
   60POPE  H12B 5852   5.118   2.222   2.228
   60POPE   C11 5853   5.244   2.397   2.247
   60POPE  H11A 5854   5.236   2.508   2.244
   60POPE  H11B 5855   5.308   2.366   2.162
   60POPE     P 5856   5.453   2.339   2.394
   60POPE   O13 5857   5.511   2.472   2.421
   60POPE   O14 5858   5.505   2.264   2.278
   60POPE   O11 5859   5.457   2.250   2.526
   60POPE   O12 5860   5.296   2.357   2.373
   60POPE    C1 5861   5.340   2.253   2.610
   60POPE    HA 5862   5.257   2.196   2.563
   60POPE    HB 5863   5.306   2.357   2.626
   60POPE    C2 5864   5.364   2.192   2.751
   60POPE    HS 5865   5.470   2.211   2.779
   60POPE   O21 5866   5.332   2.052   2.743
   60POPE   C21 5867   5.401   1.975   2.826
   60POPE   O22 5868   5.481   2.013   2.909
   60POPE   C22 5869   5.362   1.828   2.802
   60POPE   H2R 5870   5.418   1.794   2.712
   60POPE   H2S 5871   5.254   1.822   2.781
   60POPE    C3 5872   5.272   2.269   2.852
   60POPE    HX 5873   5.169   2.261   2.811
   60POPE    HY 5874   5.302   2.376   2.846
   60POPE   O31 5875   5.277   2.226   2.990
   60POPE   C31 5876   5.182   2.283   3.065
   60POPE   O32 5877   5.091   2.351   3.021
   60POPE   C32 5878   5.207   2.255   3.214
   60POPE   H2X 5879   5.297   2.316   3.240
   60POPE   H2Y 5880   5.236   2.148   3.224
   60POPE   C23 5881   5.399   1.737   2.922
   60POPE   H3R 5882   5.509   1.744   2.938
   60POPE   H3S 5883   5.377   1.632   2.897
   60POPE   C24 5884   5.328   1.774   3.053
   60POPE   H4R 5885   5.220   1.749   3.048
   60POPE   H4S 5886   5.337   1.883   3.071
   60POPE   C25 5887   5.394   1.702   3.171
   60POPE   H5R 5888   5.503   1.709   3.156
   60POPE   H5S 5889   5.363   1.595   3.172
   60POPE   C26 5890   5.371   1.768   3.307
   60POPE   H6R 5891   5.376   1.690   3.386
   60POPE   H6S 5892   5.270   1.814   3.307
   60POPE   C27 5893   5.481   1.872   3.336
   60POPE   H7R 5894   5.484   1.946   3.253
   60POPE   H7S 5895   5.578   1.818   3.336
   60POPE   C28 5896   5.467   1.945   3.470
   60POPE   H8R 5897   5.556   2.007   3.489
   60POPE   H8S 5898   5.465   1.869   3.551
   60POPE   C29 5899   5.340   2.026   3.473
   60POPE   H91 5900   5.251   1.968   3.443
   60POPE  C210 5901   5.321   2.155   3.500
   60POPE  H101 5902   5.216   2.188   3.511
   60POPE  C211 5903   5.423   2.258   3.533
   60POPE  H11R 5904   5.409   2.346   3.466
   60POPE  H11S 5905   5.523   2.217   3.508
   60POPE  C212 5906   5.427   2.310   3.678
   60POPE  H12R 5907   5.354   2.393   3.688
   60POPE  H12S 5908   5.527   2.353   3.699
   60POPE  C213 5909   5.392   2.208   3.787
   60POPE  H13R 5910   5.479   2.143   3.811
   60POPE  H13S 5911   5.309   2.141   3.755
   60POPE  C214 5912   5.343   2.280   3.913
   60POPE  H14R 5913   5.249   2.333   3.885
   60POPE  H14S 5914   5.416   2.358   3.945
   60POPE  C215 5915   5.315   2.184   4.028
   60POPE  H15R 5916   5.403   2.179   4.095
   60POPE  H15S 5917   5.298   2.082   3.987
   60POPE  C216 5918   5.190   2.228   4.104
   60POPE  H16R 5919   5.105   2.229   4.031
   60POPE  H16S 5920   5.206   2.332   4.138
   60POPE  C217 5921   5.152   2.140   4.223
   60POPE  H17R 5922   5.138   2.035   4.187
   60POPE  H17S 5923   5.055   2.176   4.262
   60POPE  C218 5924   5.254   2.140   4.337
   60POPE  H18R 5925   5.352   2.102   4.302
   60POPE  H18S 5926   5.218   2.075   4.420
   60POPE  H18T 5927   5.267   2.243   4.377
   60POPE   C33 5928   5.091   2.293   3.311
   60POPE   H3X 5929   5.030   2.377   3.270
   60POPE   H3Y 5930   5.136   2.330   3.405
   60POPE   C34 5931   5.000   2.173   3.345
   60POPE   H4X 5932   5.061   2.081   3.335
   60POPE   H4Y 5933   4.924   2.174   3.263
   60POPE   C35 5934   4.928   2.161   3.483
   60POPE   H5X 5935   4.821   2.190   3.468
   60POPE   H5Y 5936   4.973   2.231   3.557
   60POPE   C36 5937   4.934   2.015   3.537
   60POPE   H6X 5938   5.038   2.003   3.574
   60POPE   H6Y 5939   4.923   1.952   3.446
   60POPE   C37 5940   4.832   1.956   3.640
   60POPE   H7X 5941   4.734   1.987   3.599
   60POPE   H7Y 5942   4.839   2.008   3.738
   60POPE   C38 5943   4.828   1.797   3.664
   60POPE   H8X 5944   4.847   1.743   3.568
   60POPE   H8Y 5945   4.719   1.782   3.677
   60POPE   C39 5946   4.883   1.720   3.794
   60POPE   H9X 5947   4.790   1.667   3.825
   60POPE   H9Y 5948   4.890   1.800   3.870
   60POPE  C310 5949   4.983   1.592   3.817
   60POPE  H10X 5950   4.939   1.517   3.748
   60POPE  H10Y 5951   4.948   1.552   3.915
   60POPE  C311 5952   5.145   1.559   3.806
   60POPE  H11X 5953   5.191   1.567   3.706
   60POPE  H11Y 5954   5.131   1.449   3.818
   60POPE  C312 5955   5.281   1.565   3.890
   60POPE  H12X 5956   5.345   1.497   3.830
   60POPE  H12Y 5957   5.277   1.507   3.985
   60POPE  C313 5958   5.380   1.687   3.902
   60POPE  H13X 5959   5.338   1.786   3.874
   60POPE  H13Y 5960   5.459   1.672   3.825
   60POPE  C314 5961   5.456   1.702   4.038
   60POPE  H14X 5962   5.563   1.723   4.015
   60POPE  H14Y 5963   5.453   1.604   4.090
   60POPE  C315 5964   5.413   1.814   4.136
   60POPE  H15X 5965   5.303   1.823   4.149
   60POPE  H15Y 5966   5.447   1.912   4.095
   60POPE  C316 5967   5.462   1.793   4.279
   60POPE  H16X 5968   5.448   1.885   4.340
   60POPE  H16Y 5969   5.569   1.762   4.279
   60POPE  H16Z 5970   5.402   1.712   4.326
   61POPE     N 5971   2.100   5.332   2.455
   61POPE   HN1 5972   2.204   5.337   2.446
   61POPE   HN2 5973   2.071   5.371   2.547
   61POPE   HN3 5974   2.067   5.234   2.449
   61POPE   C12 5975   2.030   5.403   2.343
   61POPE  H12A 5976   2.091   5.391   2.251
   61POPE  H12B 5977   2.017   5.510   2.367
   61POPE   C11 5978   1.896   5.334   2.324
   61POPE  H11A 5979   1.842   5.377   2.236
   61POPE  H11B 5980   1.831   5.349   2.413
   61POPE     P 5981   1.804   5.095   2.285
   61POPE   O13 5982   1.812   5.048   2.145
   61POPE   O14 5983   1.681   5.163   2.328
   61POPE   O11 5984   1.848   4.985   2.389
   61POPE   O12 5985   1.924   5.197   2.303
   61POPE    C1 5986   1.984   4.947   2.412
   61POPE    HA 5987   2.055   4.995   2.341
   61POPE    HB 5988   1.993   4.838   2.395
   61POPE    C2 5989   2.033   4.973   2.559
   61POPE    HS 5990   1.989   4.892   2.621
   61POPE   O21 5991   1.995   5.106   2.604
   61POPE   C21 5992   1.883   5.107   2.679
   61POPE   O22 5993   1.819   5.010   2.713
   61POPE   C22 5994   1.852   5.251   2.724
   61POPE   H2R 5995   1.778   5.291   2.652
   61POPE   H2S 5996   1.945   5.311   2.718
   61POPE    C3 5997   2.189   4.953   2.567
   61POPE    HX 5998   2.239   5.046   2.533
   61POPE    HY 5999   2.211   4.873   2.493
   61POPE   O31 6000   2.235   4.912   2.698
   61POPE   C31 6001   2.360   4.863   2.699
   61POPE   O32 6002   2.438   4.871   2.607
   61POPE   C32 6003   2.397   4.801   2.835
   61POPE   H2X 6004   2.362   4.873   2.912
   61POPE   H2Y 6005   2.507   4.795   2.841
   61POPE   C23 6006   1.793   5.261   2.868
   61POPE   H3R 6007   1.694   5.211   2.873
   61POPE   H3S 6008   1.777   5.368   2.890
   61POPE   C24 6009   1.884   5.201   2.977
   61POPE   H4R 6010   1.989   5.210   2.942
   61POPE   H4S 6011   1.863   5.093   2.988
   61POPE   C25 6012   1.878   5.272   3.115
   61POPE   H5R 6013   1.865   5.381   3.098
   61POPE   H5S 6014   1.976   5.260   3.165
   61POPE   C26 6015   1.769   5.225   3.214
   61POPE   H6R 6016   1.671   5.233   3.163
   61POPE   H6S 6017   1.768   5.295   3.300
   61POPE   C27 6018   1.785   5.082   3.269
   61POPE   H7R 6019   1.781   5.013   3.183
   61POPE   H7S 6020   1.696   5.058   3.332
   61POPE   C28 6021   1.914   5.051   3.351
   61POPE   H8R 6022   2.002   5.095   3.300
   61POPE   H8S 6023   1.927   4.941   3.345
   61POPE   C29 6024   1.911   5.086   3.498
   61POPE   H91 6025   1.812   5.076   3.544
   61POPE  C210 6026   2.014   5.126   3.577
   61POPE  H101 6027   1.992   5.147   3.683
   61POPE  C211 6028   2.159   5.149   3.540
   61POPE  H11R 6029   2.178   5.258   3.547
   61POPE  H11S 6030   2.179   5.124   3.434
   61POPE  C212 6031   2.267   5.080   3.629
   61POPE  H12R 6032   2.226   5.060   3.730
   61POPE  H12S 6033   2.351   5.153   3.641
   61POPE  C213 6034   2.329   4.951   3.569
   61POPE  H13R 6035   2.360   4.975   3.465
   61POPE  H13S 6036   2.249   4.875   3.562
   61POPE  C214 6037   2.452   4.888   3.639
   61POPE  H14R 6038   2.545   4.929   3.593
   61POPE  H14S 6039   2.454   4.780   3.613
   61POPE  C215 6040   2.459   4.900   3.792
   61POPE  H15R 6041   2.382   4.829   3.829
   61POPE  H15S 6042   2.428   5.000   3.828
   61POPE  C216 6043   2.590   4.855   3.861
   61POPE  H16R 6044   2.630   4.771   3.799
   61POPE  H16S 6045   2.564   4.814   3.961
   61POPE  C217 6046   2.703   4.958   3.883
   61POPE  H17R 6047   2.713   5.022   3.793
   61POPE  H17S 6048   2.799   4.903   3.890
   61POPE  C218 6049   2.690   5.043   4.010
   61POPE  H18R 6050   2.584   5.070   4.030
   61POPE  H18S 6051   2.749   5.137   3.999
   61POPE  H18T 6052   2.729   4.989   4.099
   61POPE   C33 6053   2.334   4.662   2.864
   61POPE   H3X 6054   2.230   4.662   2.824
   61POPE   H3Y 6055   2.390   4.584   2.808
   61POPE   C34 6056   2.323   4.628   3.014
   61POPE   H4X 6057   2.328   4.726   3.067
   61POPE   H4Y 6058   2.412   4.569   3.044
   61POPE   C35 6059   2.196   4.558   3.065
   61POPE   H5X 6060   2.190   4.453   3.030
   61POPE   H5Y 6061   2.107   4.611   3.024
   61POPE   C36 6062   2.187   4.560   3.220
   61POPE   H6X 6063   2.210   4.662   3.257
   61POPE   H6Y 6064   2.269   4.496   3.259
   61POPE   C37 6065   2.050   4.521   3.280
   61POPE   H7X 6066   2.059   4.426   3.337
   61POPE   H7Y 6067   1.982   4.500   3.195
   61POPE   C38 6068   1.985   4.629   3.370
   61POPE   H8X 6069   1.879   4.638   3.337
   61POPE   H8Y 6070   2.031   4.728   3.352
   61POPE   C39 6071   1.982   4.598   3.521
   61POPE   H9X 6072   2.013   4.493   3.540
   61POPE   H9Y 6073   1.878   4.611   3.558
   61POPE  C310 6074   2.067   4.691   3.609
   61POPE  H10X 6075   2.053   4.795   3.573
   61POPE  H10Y 6076   2.174   4.663   3.596
   61POPE  C311 6077   2.030   4.688   3.759
   61POPE  H11X 6078   2.020   4.584   3.795
   61POPE  H11Y 6079   1.932   4.739   3.773
   61POPE  C312 6080   2.139   4.760   3.839
   61POPE  H12X 6081   2.166   4.850   3.780
   61POPE  H12Y 6082   2.228   4.694   3.843
   61POPE  C313 6083   2.108   4.810   3.981
   61POPE  H13X 6084   2.097   4.724   4.051
   61POPE  H13Y 6085   2.012   4.866   3.982
   61POPE  C314 6086   2.222   4.903   4.028
   61POPE  H14X 6087   2.234   4.985   3.953
   61POPE  H14Y 6088   2.315   4.843   4.028
   61POPE  C315 6089   2.210   4.966   4.166
   61POPE  H15X 6090   2.309   5.009   4.191
   61POPE  H15Y 6091   2.187   4.887   4.240
   61POPE  C316 6092   2.108   5.079   4.178
   61POPE  H16X 6093   2.005   5.038   4.165
   61POPE  H16Y 6094   2.125   5.156   4.100
   61POPE  H16Z 6095   2.113   5.128   4.277
   62POPE     N 6096   6.327   4.370   2.231
   62POPE   HN1 6097   6.255   4.404   2.297
   62POPE   HN2 6098   6.298   4.277   2.192
   62POPE   HN3 6099   6.420   4.367   2.278
   62POPE   C12 6100   6.329   4.470   2.118
   62POPE  H12A 6101   6.226   4.473   2.077
   62POPE  H12B 6102   6.398   4.430   2.040
   62POPE   C11 6103   6.375   4.610   2.164
   62POPE  H11A 6104   6.343   4.684   2.087
   62POPE  H11B 6105   6.486   4.613   2.165
   62POPE     P 6106   6.172   4.650   2.320
   62POPE   O13 6107   6.140   4.513   2.363
   62POPE   O14 6108   6.103   4.699   2.199
   62POPE   O11 6109   6.156   4.751   2.440
   62POPE   O12 6110   6.327   4.648   2.293
   62POPE    C1 6111   6.270   4.782   2.523
   62POPE    HA 6112   6.242   4.861   2.596
   62POPE    HB 6113   6.353   4.824   2.462
   62POPE    C2 6114   6.322   4.660   2.605
   62POPE    HS 6115   6.325   4.572   2.536
   62POPE   O21 6116   6.231   4.636   2.714
   62POPE   C21 6117   6.243   4.516   2.767
   62POPE   O22 6118   6.308   4.423   2.719
   62POPE   C22 6119   6.166   4.511   2.899
   62POPE   H2R 6120   6.064   4.474   2.877
   62POPE   H2S 6121   6.157   4.615   2.938
   62POPE    C3 6122   6.468   4.681   2.655
   62POPE    HX 6123   6.533   4.698   2.567
   62POPE    HY 6124   6.500   4.586   2.703
   62POPE   O31 6125   6.474   4.794   2.743
   62POPE   C31 6126   6.559   4.781   2.844
   62POPE   O32 6127   6.642   4.693   2.856
   62POPE   C32 6128   6.529   4.889   2.948
   62POPE   H2X 6129   6.590   4.979   2.925
   62POPE   H2Y 6130   6.561   4.848   3.046
   62POPE   C23 6131   6.235   4.420   3.004
   62POPE   H3R 6132   6.328   4.374   2.964
   62POPE   H3S 6133   6.167   4.336   3.029
   62POPE   C24 6134   6.269   4.491   3.135
   62POPE   H4R 6135   6.306   4.416   3.208
   62POPE   H4S 6136   6.176   4.535   3.179
   62POPE   C25 6137   6.373   4.601   3.118
   62POPE   H5R 6138   6.326   4.681   3.056
   62POPE   H5S 6139   6.463   4.569   3.060
   62POPE   C26 6140   6.416   4.664   3.250
   62POPE   H6R 6141   6.322   4.686   3.306
   62POPE   H6S 6142   6.471   4.759   3.231
   62POPE   C27 6143   6.500   4.578   3.344
   62POPE   H7R 6144   6.586   4.534   3.288
   62POPE   H7S 6145   6.437   4.495   3.383
   62POPE   C28 6146   6.557   4.658   3.462
   62POPE   H8R 6147   6.630   4.730   3.420
   62POPE   H8S 6148   6.615   4.591   3.528
   62POPE   C29 6149   6.451   4.733   3.538
   62POPE   H91 6150   6.435   4.837   3.505
   62POPE  C210 6151   6.377   4.684   3.638
   62POPE  H101 6152   6.303   4.749   3.688
   62POPE  C211 6153   6.387   4.545   3.691
   62POPE  H11R 6154   6.419   4.549   3.797
   62POPE  H11S 6155   6.465   4.487   3.637
   62POPE  C212 6156   6.257   4.463   3.679
   62POPE  H12R 6157   6.277   4.362   3.720
   62POPE  H12S 6158   6.232   4.450   3.572
   62POPE  C213 6159   6.137   4.524   3.752
   62POPE  H13R 6160   6.055   4.449   3.753
   62POPE  H13S 6161   6.100   4.612   3.696
   62POPE  C214 6162   6.166   4.566   3.897
   62POPE  H14R 6163   6.069   4.595   3.943
   62POPE  H14S 6164   6.231   4.656   3.899
   62POPE  C215 6165   6.231   4.455   3.982
   62POPE  H15R 6166   6.341   4.472   3.986
   62POPE  H15S 6167   6.214   4.356   3.936
   62POPE  C216 6168   6.174   4.452   4.124
   62POPE  H16R 6169   6.172   4.557   4.161
   62POPE  H16S 6170   6.241   4.393   4.190
   62POPE  C217 6171   6.032   4.394   4.129
   62POPE  H17R 6172   6.032   4.303   4.194
   62POPE  H17S 6173   6.006   4.361   4.026
   62POPE  C218 6174   5.925   4.491   4.178
   62POPE  H18R 6175   5.826   4.441   4.179
   62POPE  H18S 6176   5.920   4.580   4.111
   62POPE  H18T 6177   5.949   4.525   4.280
   62POPE   C33 6178   6.380   4.928   2.953
   62POPE   H3X 6179   6.315   4.839   2.944
   62POPE   H3Y 6180   6.355   4.991   2.865
   62POPE   C34 6181   6.346   5.000   3.084
   62POPE   H4X 6182   6.388   5.102   3.077
   62POPE   H4Y 6183   6.397   4.951   3.170
   62POPE   C35 6184   6.195   5.005   3.109
   62POPE   H5X 6185   6.144   5.008   3.010
   62POPE   H5Y 6186   6.168   5.098   3.163
   62POPE   C36 6187   6.140   4.888   3.192
   62POPE   H6X 6188   6.171   4.793   3.144
   62POPE   H6Y 6189   6.029   4.888   3.190
   62POPE   C37 6190   6.187   4.888   3.338
   62POPE   H7X 6191   6.298   4.888   3.341
   62POPE   H7Y 6192   6.151   4.794   3.386
   62POPE   C38 6193   6.143   5.005   3.427
   62POPE   H8X 6194   6.032   5.007   3.432
   62POPE   H8Y 6195   6.180   5.102   3.387
   62POPE   C39 6196   6.195   4.985   3.569
   62POPE   H9X 6197   6.307   4.985   3.571
   62POPE   H9Y 6198   6.161   4.884   3.601
   62POPE  C310 6199   6.143   5.086   3.670
   62POPE  H10X 6200   6.047   5.129   3.635
   62POPE  H10Y 6201   6.215   5.170   3.681
   62POPE  C311 6202   6.120   5.017   3.804
   62POPE  H11X 6203   6.215   4.971   3.837
   62POPE  H11Y 6204   6.047   4.934   3.789
   62POPE  C312 6205   6.069   5.111   3.913
   62POPE  H12X 6206   5.963   5.138   3.891
   62POPE  H12Y 6207   6.128   5.205   3.912
   62POPE  C313 6208   6.081   5.048   4.053
   62POPE  H13X 6209   6.034   5.116   4.128
   62POPE  H13Y 6210   6.189   5.041   4.077
   62POPE  C314 6211   6.020   4.908   4.065
   62POPE  H14X 6212   6.029   4.875   4.171
   62POPE  H14Y 6213   6.080   4.836   4.005
   62POPE  C315 6214   5.874   4.897   4.021
   62POPE  H15X 6215   5.836   4.797   4.050
   62POPE  H15Y 6216   5.869   4.904   3.910
   62POPE  C316 6217   5.780   5.004   4.077
   62POPE  H16X 6218   5.675   4.972   4.067
   62POPE  H16Y 6219   5.793   5.100   4.023
   62POPE  H16Z 6220   5.800   5.023   4.185
   63POPE     N 6221   6.428   3.282   2.111
   63POPE   HN1 6222   6.454   3.299   2.011
   63POPE   HN2 6223   6.395   3.368   2.158
   63POPE   HN3 6224   6.511   3.247   2.163
   63POPE   C12 6225   6.332   3.167   2.130
   63POPE  H12A 6226   6.357   3.090   2.054
   63POPE  H12B 6227   6.228   3.204   2.116
   63POPE   C11 6228   6.356   3.110   2.269
   63POPE  H11A 6229   6.301   3.014   2.282
   63POPE  H11B 6230   6.319   3.180   2.346
   63POPE     P 6231   6.559   3.063   2.425
   63POPE   O13 6232   6.701   3.030   2.402
   63POPE   O14 6233   6.470   2.968   2.494
   63POPE   O11 6234   6.544   3.208   2.486
   63POPE   O12 6235   6.496   3.088   2.281
   63POPE    C1 6236   6.571   3.325   2.407
   63POPE    HA 6237   6.475   3.367   2.370
   63POPE    HB 6238   6.635   3.302   2.319
   63POPE    C2 6239   6.643   3.439   2.485
   63POPE    HS 6240   6.685   3.510   2.411
   63POPE   O21 6241   6.747   3.387   2.571
   63POPE   C21 6242   6.853   3.345   2.501
   63POPE   O22 6243   6.860   3.345   2.379
   63POPE   C22 6244   6.977   3.322   2.589
   63POPE   H2R 6245   7.008   3.423   2.624
   63POPE   H2S 6246   7.055   3.290   2.516
   63POPE    C3 6247   6.540   3.523   2.567
   63POPE    HX 6248   6.461   3.556   2.497
   63POPE    HY 6249   6.595   3.614   2.599
   63POPE   O31 6250   6.487   3.457   2.684
   63POPE   C31 6251   6.375   3.389   2.670
   63POPE   O32 6252   6.299   3.392   2.574
   63POPE   C32 6253   6.353   3.308   2.797
   63POPE   H2X 6254   6.248   3.272   2.800
   63POPE   H2Y 6255   6.374   3.372   2.885
   63POPE   C23 6256   6.981   3.213   2.701
   63POPE   H3R 6257   7.087   3.183   2.709
   63POPE   H3S 6258   6.921   3.126   2.667
   63POPE   C24 6259   6.941   3.250   2.847
   63POPE   H4R 6260   6.882   3.164   2.885
   63POPE   H4S 6261   6.872   3.337   2.841
   63POPE   C25 6262   7.056   3.272   2.951
   63POPE   H5R 6263   7.121   3.356   2.919
   63POPE   H5S 6264   7.120   3.181   2.952
   63POPE   C26 6265   7.006   3.298   3.097
   63POPE   H6R 6266   7.012   3.201   3.151
   63POPE   H6S 6267   6.899   3.322   3.085
   63POPE   C27 6268   7.060   3.413   3.188
   63POPE   H7R 6269   7.072   3.509   3.134
   63POPE   H7S 6270   7.163   3.389   3.222
   63POPE   C28 6271   6.972   3.434   3.318
   63POPE   H8R 6272   7.036   3.396   3.401
   63POPE   H8S 6273   6.890   3.360   3.309
   63POPE   C29 6274   6.914   3.567   3.365
   63POPE   H91 6275   6.993   3.644   3.359
   63POPE  C210 6276   6.791   3.610   3.411
   63POPE  H101 6277   6.790   3.716   3.443
   63POPE  C211 6278   6.650   3.555   3.436
   63POPE  H11R 6279   6.628   3.462   3.380
   63POPE  H11S 6280   6.576   3.623   3.390
   63POPE  C212 6281   6.596   3.533   3.580
   63POPE  H12R 6282   6.558   3.629   3.621
   63POPE  H12S 6283   6.680   3.499   3.645
   63POPE  C213 6284   6.482   3.427   3.586
   63POPE  H13R 6285   6.525   3.329   3.556
   63POPE  H13S 6286   6.403   3.452   3.512
   63POPE  C214 6287   6.416   3.406   3.724
   63POPE  H14R 6288   6.372   3.304   3.726
   63POPE  H14S 6289   6.333   3.478   3.738
   63POPE  C215 6290   6.515   3.420   3.840
   63POPE  H15R 6291   6.540   3.527   3.853
   63POPE  H15S 6292   6.609   3.367   3.813
   63POPE  C216 6293   6.468   3.364   3.975
   63POPE  H16R 6294   6.453   3.254   3.966
   63POPE  H16S 6295   6.370   3.409   4.003
   63POPE  C217 6296   6.572   3.395   4.084
   63POPE  H17R 6297   6.577   3.505   4.097
   63POPE  H17S 6298   6.671   3.361   4.047
   63POPE  C218 6299   6.544   3.330   4.219
   63POPE  H18R 6300   6.545   3.219   4.210
   63POPE  H18S 6301   6.446   3.361   4.260
   63POPE  H18T 6302   6.623   3.358   4.292
   63POPE   C33 6303   6.452   3.191   2.787
   63POPE   H3X 6304   6.555   3.228   2.771
   63POPE   H3Y 6305   6.425   3.132   2.697
   63POPE   C34 6306   6.455   3.093   2.904
   63POPE   H4X 6307   6.352   3.064   2.934
   63POPE   H4Y 6308   6.506   3.137   2.993
   63POPE   C35 6309   6.533   2.972   2.854
   63POPE   H5X 6310   6.628   3.006   2.808
   63POPE   H5Y 6311   6.474   2.924   2.772
   63POPE   C36 6312   6.566   2.868   2.959
   63POPE   H6X 6313   6.647   2.904   3.026
   63POPE   H6Y 6314   6.603   2.781   2.901
   63POPE   C37 6315   6.448   2.821   3.043
   63POPE   H7X 6316   6.366   2.795   2.973
   63POPE   H7Y 6317   6.413   2.902   3.109
   63POPE   C38 6318   6.482   2.696   3.125
   63POPE   H8X 6319   6.555   2.634   3.068
   63POPE   H8Y 6320   6.390   2.635   3.134
   63POPE   C39 6321   6.535   2.723   3.266
   63POPE   H9X 6322   6.612   2.804   3.262
   63POPE   H9Y 6323   6.585   2.631   3.302
   63POPE  C310 6324   6.422   2.759   3.365
   63POPE  H10X 6325   6.348   2.676   3.364
   63POPE  H10Y 6326   6.370   2.851   3.332
   63POPE  C311 6327   6.472   2.776   3.510
   63POPE  H11X 6328   6.551   2.700   3.529
   63POPE  H11Y 6329   6.389   2.759   3.581
   63POPE  C312 6330   6.529   2.916   3.533
   63POPE  H12X 6331   6.446   2.991   3.538
   63POPE  H12Y 6332   6.589   2.939   3.442
   63POPE  C313 6333   6.621   2.928   3.655
   63POPE  H13X 6334   6.723   2.944   3.613
   63POPE  H13Y 6335   6.622   2.832   3.710
   63POPE  C314 6336   6.591   3.044   3.751
   63POPE  H14X 6337   6.502   3.021   3.813
   63POPE  H14Y 6338   6.566   3.133   3.689
   63POPE  C315 6339   6.710   3.084   3.841
   63POPE  H15X 6340   6.723   3.194   3.834
   63POPE  H15Y 6341   6.804   3.039   3.802
   63POPE  C316 6342   6.697   3.055   3.991
   63POPE  H16X 6343   6.785   3.094   4.046
   63POPE  H16Y 6344   6.689   2.946   4.011
   63POPE  H16Z 6345   6.605   3.103   4.031
   64POPE     N 6346   1.880   2.301   2.207
   64POPE   HN1 6347   1.865   2.260   2.301
   64POPE   HN2 6348   1.884   2.222   2.140
   64POPE   HN3 6349   1.967   2.357   2.205
   64POPE   C12 6350   1.757   2.384   2.182
   64POPE  H12A 6351   1.754   2.417   2.076
   64POPE  H12B 6352   1.764   2.473   2.249
   64POPE   C11 6353   1.632   2.303   2.219
   64POPE  H11A 6354   1.602   2.237   2.135
   64POPE  H11B 6355   1.548   2.374   2.237
   64POPE     P 6356   1.541   2.168   2.422
   64POPE   O13 6357   1.598   2.092   2.534
   64POPE   O14 6358   1.454   2.094   2.327
   64POPE   O11 6359   1.477   2.304   2.471
   64POPE   O12 6360   1.661   2.223   2.334
   64POPE    C1 6361   1.559   2.408   2.528
   64POPE    HA 6362   1.546   2.500   2.468
   64POPE    HB 6363   1.668   2.384   2.526
   64POPE    C2 6364   1.520   2.440   2.675
   64POPE    HS 6365   1.579   2.529   2.709
   64POPE   O21 6366   1.545   2.328   2.761
   64POPE   C21 6367   1.673   2.308   2.790
   64POPE   O22 6368   1.763   2.388   2.768
   64POPE   C22 6369   1.692   2.169   2.851
   64POPE   H2R 6370   1.733   2.107   2.769
   64POPE   H2S 6371   1.592   2.127   2.877
   64POPE    C3 6372   1.371   2.482   2.685
   64POPE    HX 6373   1.309   2.399   2.646
   64POPE    HY 6374   1.356   2.568   2.616
   64POPE   O31 6375   1.339   2.524   2.819
   64POPE   C31 6376   1.281   2.429   2.893
   64POPE   O32 6377   1.240   2.322   2.852
   64POPE   C32 6378   1.274   2.473   3.039
   64POPE   H2X 6379   1.169   2.504   3.056
   64POPE   H2Y 6380   1.340   2.561   3.056
   64POPE   C23 6381   1.790   2.164   2.971
   64POPE   H3R 6382   1.879   2.227   2.951
   64POPE   H3S 6383   1.826   2.059   2.981
   64POPE   C24 6384   1.730   2.202   3.108
   64POPE   H4R 6385   1.706   2.310   3.110
   64POPE   H4S 6386   1.807   2.183   3.185
   64POPE   C25 6387   1.604   2.121   3.145
   64POPE   H5R 6388   1.616   2.017   3.109
   64POPE   H5S 6389   1.517   2.164   3.092
   64POPE   C26 6390   1.575   2.114   3.297
   64POPE   H6R 6391   1.644   2.041   3.343
   64POPE   H6S 6392   1.472   2.074   3.310
   64POPE   C27 6393   1.587   2.247   3.373
   64POPE   H7R 6394   1.528   2.325   3.321
   64POPE   H7S 6395   1.693   2.280   3.374
   64POPE   C28 6396   1.535   2.238   3.518
   64POPE   H8R 6397   1.429   2.205   3.515
   64POPE   H8S 6398   1.535   2.340   3.563
   64POPE   C29 6399   1.621   2.146   3.601
   64POPE   H91 6400   1.727   2.175   3.607
   64POPE  C210 6401   1.582   2.034   3.666
   64POPE  H101 6402   1.657   1.977   3.722
   64POPE  C211 6403   1.442   1.976   3.671
   64POPE  H11R 6404   1.420   1.919   3.579
   64POPE  H11S 6405   1.366   2.057   3.679
   64POPE  C212 6406   1.425   1.883   3.793
   64POPE  H12R 6407   1.487   1.792   3.782
   64POPE  H12S 6408   1.320   1.848   3.795
   64POPE  C213 6409   1.459   1.955   3.925
   64POPE  H13R 6410   1.415   2.056   3.918
   64POPE  H13S 6411   1.569   1.968   3.935
   64POPE  C214 6412   1.405   1.889   4.053
   64POPE  H14R 6413   1.466   1.801   4.080
   64POPE  H14S 6414   1.301   1.852   4.037
   64POPE  C215 6415   1.403   1.992   4.167
   64POPE  H15R 6416   1.360   2.087   4.127
   64POPE  H15S 6417   1.508   2.012   4.198
   64POPE  C216 6418   1.322   1.951   4.290
   64POPE  H16R 6419   1.366   1.857   4.330
   64POPE  H16S 6420   1.217   1.932   4.258
   64POPE  C217 6421   1.315   2.056   4.402
   64POPE  H17R 6422   1.418   2.088   4.429
   64POPE  H17S 6423   1.275   2.006   4.492
   64POPE  C218 6424   1.227   2.176   4.366
   64POPE  H18R 6425   1.121   2.146   4.352
   64POPE  H18S 6426   1.260   2.223   4.271
   64POPE  H18T 6427   1.232   2.253   4.447
   64POPE   C33 6428   1.315   2.356   3.133
   64POPE   H3X 6429   1.426   2.354   3.141
   64POPE   H3Y 6430   1.284   2.259   3.089
   64POPE   C34 6431   1.252   2.358   3.273
   64POPE   H4X 6432   1.298   2.437   3.337
   64POPE   H4Y 6433   1.273   2.261   3.322
   64POPE   C35 6434   1.100   2.379   3.267
   64POPE   H5X 6435   1.061   2.332   3.174
   64POPE   H5Y 6436   1.083   2.489   3.260
   64POPE   C36 6437   1.021   2.325   3.385
   64POPE   H6X 6438   1.059   2.223   3.408
   64POPE   H6Y 6439   0.914   2.315   3.358
   64POPE   C37 6440   1.031   2.412   3.511
   64POPE   H7X 6441   0.957   2.495   3.505
   64POPE   H7Y 6442   1.133   2.455   3.519
   64POPE   C38 6443   1.006   2.327   3.634
   64POPE   H8X 6444   1.094   2.259   3.641
   64POPE   H8Y 6445   0.916   2.265   3.615
   64POPE   C39 6446   0.990   2.402   3.766
   64POPE   H9X 6447   0.965   2.328   3.846
   64POPE   H9Y 6448   0.903   2.471   3.758
   64POPE  C310 6449   1.117   2.477   3.808
   64POPE  H10X 6450   1.124   2.572   3.750
   64POPE  H10Y 6451   1.205   2.415   3.781
   64POPE  C311 6452   1.124   2.506   3.958
   64POPE  H11X 6453   1.127   2.410   4.015
   64POPE  H11Y 6454   1.032   2.557   3.993
   64POPE  C312 6455   1.243   2.596   3.994
   64POPE  H12X 6456   1.229   2.633   4.098
   64POPE  H12Y 6457   1.245   2.685   3.928
   64POPE  C313 6458   1.378   2.523   3.989
   64POPE  H13X 6459   1.456   2.596   4.020
   64POPE  H13Y 6460   1.401   2.490   3.886
   64POPE  C314 6461   1.379   2.404   4.085
   64POPE  H14X 6462   1.330   2.315   4.038
   64POPE  H14Y 6463   1.317   2.432   4.172
   64POPE  C315 6464   1.518   2.369   4.136
   64POPE  H15X 6465   1.581   2.460   4.136
   64POPE  H15Y 6466   1.564   2.295   4.067
   64POPE  C316 6467   1.513   2.312   4.277
   64POPE  H16X 6468   1.609   2.320   4.333
   64POPE  H16Y 6469   1.488   2.204   4.273
   64POPE  H16Z 6470   1.435   2.364   4.338
   65POPE     N 6471   2.292   1.365   2.265
   65POPE   HN1 6472   2.275   1.456   2.218
   65POPE   HN2 6473   2.395   1.349   2.265
   65POPE   HN3 6474   2.244   1.292   2.210
   65POPE   C12 6475   2.231   1.379   2.402
   65POPE  H12A 6476   2.273   1.471   2.446
   65POPE  H12B 6477   2.262   1.292   2.464
   65POPE   C11 6478   2.077   1.389   2.391
   65POPE  H11A 6479   2.038   1.442   2.480
   65POPE  H11B 6480   2.035   1.286   2.396
   65POPE     P 6481   2.012   1.605   2.259
   65POPE   O13 6482   1.881   1.636   2.318
   65POPE   O14 6483   2.029   1.647   2.118
   65POPE   O11 6484   2.134   1.658   2.345
   65POPE   O12 6485   2.035   1.449   2.267
   65POPE    C1 6486   2.116   1.766   2.437
   65POPE    HA 6487   2.012   1.769   2.476
   65POPE    HB 6488   2.135   1.863   2.385
   65POPE    C2 6489   2.209   1.763   2.563
   65POPE    HS 6490   2.309   1.799   2.528
   65POPE   O21 6491   2.221   1.629   2.617
   65POPE   C21 6492   2.315   1.622   2.712
   65POPE   O22 6493   2.406   1.701   2.726
   65POPE   C22 6494   2.289   1.501   2.802
   65POPE   H2R 6495   2.381   1.438   2.802
   65POPE   H2S 6496   2.205   1.442   2.760
   65POPE    C3 6497   2.156   1.861   2.672
   65POPE    HX 6498   2.139   1.960   2.627
   65POPE    HY 6499   2.234   1.874   2.750
   65POPE   O31 6500   2.039   1.811   2.739
   65POPE   C31 6501   1.922   1.861   2.700
   65POPE   O32 6502   1.906   1.942   2.610
   65POPE   C32 6503   1.811   1.801   2.785
   65POPE   H2X 6504   1.715   1.816   2.732
   65POPE   H2Y 6505   1.809   1.863   2.877
   65POPE   C23 6506   2.256   1.545   2.946
   65POPE   H3R 6507   2.174   1.621   2.943
   65POPE   H3S 6508   2.344   1.593   2.993
   65POPE   C24 6509   2.208   1.429   3.033
   65POPE   H4R 6510   2.292   1.357   3.050
   65POPE   H4S 6511   2.127   1.374   2.980
   65POPE   C25 6512   2.154   1.476   3.169
   65POPE   H5R 6513   2.077   1.554   3.151
   65POPE   H5S 6514   2.236   1.523   3.227
   65POPE   C26 6515   2.089   1.362   3.250
   65POPE   H6R 6516   2.168   1.289   3.277
   65POPE   H6S 6517   2.016   1.309   3.186
   65POPE   C27 6518   2.017   1.410   3.377
   65POPE   H7R 6519   1.980   1.321   3.432
   65POPE   H7S 6520   1.928   1.470   3.347
   65POPE   C28 6521   2.102   1.497   3.471
   65POPE   H8R 6522   2.041   1.523   3.560
   65POPE   H8S 6523   2.129   1.592   3.422
   65POPE   C29 6524   2.227   1.422   3.511
   65POPE   H91 6525   2.312   1.433   3.442
   65POPE  C210 6526   2.241   1.343   3.618
   65POPE  H101 6527   2.338   1.295   3.636
   65POPE  C211 6528   2.136   1.314   3.723
   65POPE  H11R 6529   2.126   1.205   3.740
   65POPE  H11S 6530   2.035   1.352   3.694
   65POPE  C212 6531   2.181   1.384   3.852
   65POPE  H12R 6532   2.198   1.492   3.832
   65POPE  H12S 6533   2.276   1.338   3.885
   65POPE  C213 6534   2.081   1.373   3.967
   65POPE  H13R 6535   2.067   1.266   3.995
   65POPE  H13S 6536   1.983   1.411   3.931
   65POPE  C214 6537   2.125   1.457   4.087
   65POPE  H14R 6538   2.036   1.506   4.132
   65POPE  H14S 6539   2.189   1.540   4.051
   65POPE  C215 6540   2.200   1.379   4.197
   65POPE  H15R 6541   2.226   1.452   4.277
   65POPE  H15S 6542   2.295   1.338   4.157
   65POPE  C216 6543   2.120   1.266   4.262
   65POPE  H16R 6544   2.164   1.240   4.360
   65POPE  H16S 6545   2.126   1.175   4.198
   65POPE  C217 6546   1.973   1.302   4.279
   65POPE  H17R 6547   1.928   1.318   4.179
   65POPE  H17S 6548   1.964   1.398   4.334
   65POPE  C218 6549   1.892   1.195   4.350
   65POPE  H18R 6550   1.784   1.208   4.327
   65POPE  H18S 6551   1.904   1.206   4.460
   65POPE  H18T 6552   1.922   1.093   4.318
   65POPE   C33 6553   1.834   1.652   2.819
   65POPE   H3X 6554   1.940   1.631   2.844
   65POPE   H3Y 6555   1.808   1.590   2.731
   65POPE   C34 6556   1.753   1.605   2.941
   65POPE   H4X 6557   1.768   1.496   2.955
   65POPE   H4Y 6558   1.645   1.622   2.922
   65POPE   C35 6559   1.793   1.677   3.071
   65POPE   H5X 6560   1.770   1.785   3.061
   65POPE   H5Y 6561   1.902   1.668   3.089
   65POPE   C36 6562   1.715   1.625   3.191
   65POPE   H6X 6563   1.762   1.534   3.234
   65POPE   H6Y 6564   1.615   1.594   3.152
   65POPE   C37 6565   1.689   1.732   3.298
   65POPE   H7X 6566   1.604   1.695   3.359
   65POPE   H7Y 6567   1.656   1.826   3.250
   65POPE   C38 6568   1.804   1.759   3.396
   65POPE   H8X 6569   1.836   1.865   3.387
   65POPE   H8Y 6570   1.892   1.694   3.373
   65POPE   C39 6571   1.756   1.732   3.539
   65POPE   H9X 6572   1.732   1.624   3.548
   65POPE   H9Y 6573   1.661   1.787   3.555
   65POPE  C310 6574   1.852   1.770   3.653
   65POPE  H10X 6575   1.862   1.881   3.657
   65POPE  H10Y 6576   1.952   1.727   3.635
   65POPE  C311 6577   1.795   1.716   3.784
   65POPE  H11X 6578   1.797   1.605   3.780
   65POPE  H11Y 6579   1.688   1.746   3.791
   65POPE  C312 6580   1.864   1.762   3.914
   65POPE  H12X 6581   1.846   1.870   3.929
   65POPE  H12Y 6582   1.973   1.744   3.908
   65POPE  C313 6583   1.804   1.682   4.031
   65POPE  H13X 6584   1.840   1.577   4.022
   65POPE  H13Y 6585   1.694   1.679   4.018
   65POPE  C314 6586   1.835   1.735   4.172
   65POPE  H14X 6587   1.915   1.812   4.167
   65POPE  H14Y 6588   1.873   1.652   4.235
   65POPE  C315 6589   1.708   1.791   4.239
   65POPE  H15X 6590   1.630   1.712   4.242
   65POPE  H15Y 6591   1.669   1.872   4.174
   65POPE  C316 6592   1.728   1.844   4.381
   65POPE  H16X 6593   1.633   1.889   4.419
   65POPE  H16Y 6594   1.807   1.921   4.383
   65POPE  H16Z 6595   1.757   1.762   4.450
   66POPE     N 6596   5.786   1.395   2.305
   66POPE   HN1 6597   5.717   1.473   2.295
   66POPE   HN2 6598   5.818   1.366   2.210
   66POPE   HN3 6599   5.740   1.314   2.351
   66POPE   C12 6600   5.898   1.443   2.392
   66POPE  H12A 6601   5.994   1.420   2.340
   66POPE  H12B 6602   5.893   1.386   2.488
   66POPE   C11 6603   5.885   1.594   2.416
   66POPE  H11A 6604   5.960   1.624   2.493
   66POPE  H11B 6605   5.785   1.617   2.457
   66POPE     P 6606   5.891   1.820   2.285
   66POPE   O13 6607   5.793   1.860   2.387
   66POPE   O14 6608   5.861   1.854   2.144
   66POPE   O11 6609   6.034   1.878   2.317
   66POPE   O12 6610   5.909   1.662   2.292
   66POPE    C1 6611   6.145   1.812   2.378
   66POPE    HA 6612   6.227   1.809   2.303
   66POPE    HB 6613   6.125   1.706   2.405
   66POPE    C2 6614   6.201   1.889   2.502
   66POPE    HS 6615   6.310   1.897   2.485
   66POPE   O21 6616   6.175   1.812   2.622
   66POPE   C21 6617   6.249   1.855   2.726
   66POPE   O22 6618   6.340   1.935   2.718
   66POPE   C22 6619   6.207   1.788   2.856
   66POPE   H2R 6620   6.097   1.799   2.865
   66POPE   H2S 6621   6.254   1.843   2.940
   66POPE    C3 6622   6.144   2.035   2.513
   66POPE    HX 6623   6.165   2.084   2.416
   66POPE    HY 6624   6.205   2.088   2.589
   66POPE   O31 6625   6.002   2.045   2.540
   66POPE   C31 6626   5.970   2.047   2.669
   66POPE   O32 6627   6.050   2.041   2.760
   66POPE   C32 6628   5.821   2.064   2.690
   66POPE   H2X 6629   5.768   1.973   2.655
   66POPE   H2Y 6630   5.787   2.150   2.629
   66POPE   C23 6631   6.252   1.640   2.858
   66POPE   H3R 6632   6.363   1.638   2.859
   66POPE   H3S 6633   6.216   1.589   2.766
   66POPE   C24 6634   6.206   1.559   2.979
   66POPE   H4R 6635   6.261   1.594   3.069
   66POPE   H4S 6636   6.235   1.453   2.963
   66POPE   C25 6637   6.056   1.567   3.006
   66POPE   H5R 6638   6.034   1.665   3.054
   66POPE   H5S 6639   6.030   1.488   3.080
   66POPE   C26 6640   5.968   1.551   2.882
   66POPE   H6R 6641   6.012   1.473   2.815
   66POPE   H6S 6642   5.963   1.646   2.824
   66POPE   C27 6643   5.825   1.508   2.918
   66POPE   H7R 6644   5.836   1.403   2.952
   66POPE   H7S 6645   5.761   1.507   2.827
   66POPE   C28 6646   5.759   1.591   3.028
   66POPE   H8R 6647   5.721   1.686   2.983
   66POPE   H8S 6648   5.833   1.623   3.104
   66POPE   C29 6649   5.647   1.517   3.096
   66POPE   H91 6650   5.555   1.506   3.035
   66POPE  C210 6651   5.650   1.465   3.220
   66POPE  H101 6652   5.560   1.415   3.259
   66POPE  C211 6653   5.767   1.468   3.314
   66POPE  H11R 6654   5.862   1.465   3.256
   66POPE  H11S 6655   5.767   1.376   3.376
   66POPE  C212 6656   5.777   1.584   3.413
   66POPE  H12R 6657   5.770   1.683   3.362
   66POPE  H12S 6658   5.880   1.576   3.455
   66POPE  C213 6659   5.678   1.577   3.531
   66POPE  H13R 6660   5.635   1.474   3.536
   66POPE  H13S 6661   5.594   1.647   3.513
   66POPE  C214 6662   5.744   1.607   3.666
   66POPE  H14R 6663   5.813   1.523   3.689
   66POPE  H14S 6664   5.668   1.609   3.747
   66POPE  C215 6665   5.826   1.737   3.670
   66POPE  H15R 6666   5.758   1.825   3.663
   66POPE  H15S 6667   5.895   1.741   3.582
   66POPE  C216 6668   5.914   1.747   3.795
   66POPE  H16R 6669   5.958   1.646   3.814
   66POPE  H16S 6670   5.853   1.773   3.883
   66POPE  C217 6671   6.034   1.841   3.779
   66POPE  H17R 6672   6.000   1.939   3.740
   66POPE  H17S 6673   6.103   1.798   3.702
   66POPE  C218 6674   6.109   1.863   3.910
   66POPE  H18R 6675   6.198   1.928   3.894
   66POPE  H18S 6676   6.143   1.766   3.952
   66POPE  H18T 6677   6.042   1.912   3.983
   66POPE   C33 6678   5.794   2.091   2.841
   66POPE   H3X 6679   5.690   2.130   2.853
   66POPE   H3Y 6680   5.862   2.170   2.878
   66POPE   C34 6681   5.809   1.965   2.929
   66POPE   H4X 6682   5.891   1.901   2.890
   66POPE   H4Y 6683   5.716   1.906   2.923
   66POPE   C35 6684   5.842   1.996   3.077
   66POPE   H5X 6685   5.941   2.046   3.083
   66POPE   H5Y 6686   5.850   1.899   3.131
   66POPE   C36 6687   5.736   2.083   3.144
   66POPE   H6X 6688   5.637   2.045   3.111
   66POPE   H6Y 6689   5.744   2.188   3.108
   66POPE   C37 6690   5.738   2.080   3.298
   66POPE   H7X 6691   5.737   1.975   3.334
   66POPE   H7Y 6692   5.643   2.128   3.330
   66POPE   C38 6693   5.854   2.156   3.365
   66POPE   H8X 6694   5.880   2.240   3.297
   66POPE   H8Y 6695   5.942   2.088   3.372
   66POPE   C39 6696   5.820   2.216   3.503
   66POPE   H9X 6697   5.712   2.240   3.503
   66POPE   H9Y 6698   5.872   2.313   3.516
   66POPE  C310 6699   5.852   2.127   3.624
   66POPE  H10X 6700   5.956   2.147   3.656
   66POPE  H10Y 6701   5.845   2.020   3.594
   66POPE  C311 6702   5.755   2.152   3.741
   66POPE  H11X 6703   5.655   2.114   3.710
   66POPE  H11Y 6704   5.746   2.261   3.760
   66POPE  C312 6705   5.795   2.082   3.872
   66POPE  H12X 6706   5.897   2.116   3.902
   66POPE  H12Y 6707   5.800   1.973   3.852
   66POPE  C313 6708   5.699   2.102   3.991
   66POPE  H13X 6709   5.600   2.057   3.966
   66POPE  H13Y 6710   5.684   2.211   4.008
   66POPE  C314 6711   5.753   2.037   4.119
   66POPE  H14X 6712   5.855   2.077   4.137
   66POPE  H14Y 6713   5.762   1.928   4.103
   66POPE  C315 6714   5.667   2.063   4.244
   66POPE  H15X 6715   5.563   2.034   4.221
   66POPE  H15Y 6716   5.665   2.172   4.265
   66POPE  C316 6717   5.715   1.987   4.368
   66POPE  H16X 6718   5.643   2.000   4.452
   66POPE  H16Y 6719   5.815   2.022   4.402
   66POPE  H16Z 6720   5.725   1.879   4.347
   67POPE     N 6721   2.395   0.889   2.233
   67POPE   HN1 6722   2.319   0.958   2.216
   67POPE   HN2 6723   2.481   0.921   2.184
   67POPE   HN3 6724   2.369   0.798   2.188
   67POPE   C12 6725   2.439   0.876   2.376
   67POPE  H12A 6726   2.514   0.794   2.374
   67POPE  H12B 6727   2.352   0.845   2.438
   67POPE   C11 6728   2.505   1.005   2.430
   67POPE  H11A 6729   2.580   0.978   2.508
   67POPE  H11B 6730   2.427   1.065   2.483
   67POPE     P 6731   2.693   1.044   2.250
   67POPE   O13 6732   2.757   1.168   2.199
   67POPE   O14 6733   2.642   0.950   2.148
   67POPE   O11 6734   2.782   0.971   2.357
   67POPE   O12 6735   2.563   1.087   2.329
   67POPE    C1 6736   2.815   0.832   2.355
   67POPE    HA 6737   2.920   0.820   2.321
   67POPE    HB 6738   2.751   0.772   2.287
   67POPE    C2 6739   2.807   0.765   2.497
   67POPE    HS 6740   2.866   0.671   2.489
   67POPE   O21 6741   2.669   0.731   2.522
   67POPE   C21 6742   2.633   0.689   2.643
   67POPE   O22 6743   2.704   0.671   2.739
   67POPE   C22 6744   2.480   0.669   2.644
   67POPE   H2R 6745   2.461   0.569   2.689
   67POPE   H2S 6746   2.443   0.664   2.539
   67POPE    C3 6747   2.875   0.853   2.607
   67POPE    HX 6748   2.961   0.907   2.563
   67POPE    HY 6749   2.915   0.784   2.684
   67POPE   O31 6750   2.779   0.945   2.664
   67POPE   C31 6751   2.816   0.992   2.782
   67POPE   O32 6752   2.930   0.992   2.827
   67POPE   C32 6753   2.692   1.043   2.856
   67POPE   H2X 6754   2.687   0.988   2.953
   67POPE   H2Y 6755   2.602   1.015   2.796
   67POPE   C23 6756   2.406   0.778   2.726
   67POPE   H3R 6757   2.299   0.780   2.697
   67POPE   H3S 6758   2.449   0.879   2.707
   67POPE   C24 6759   2.414   0.743   2.874
   67POPE   H4R 6760   2.521   0.723   2.899
   67POPE   H4S 6761   2.357   0.648   2.887
   67POPE   C25 6762   2.362   0.840   2.980
   67POPE   H5R 6763   2.253   0.857   2.966
   67POPE   H5S 6764   2.415   0.938   2.973
   67POPE   C26 6765   2.387   0.778   3.119
   67POPE   H6R 6766   2.497   0.770   3.138
   67POPE   H6S 6767   2.347   0.674   3.116
   67POPE   C27 6768   2.319   0.847   3.238
   67POPE   H7R 6769   2.322   0.776   3.322
   67POPE   H7S 6770   2.213   0.865   3.212
   67POPE   C28 6771   2.386   0.978   3.283
   67POPE   H8R 6772   2.381   1.053   3.201
   67POPE   H8S 6773   2.494   0.958   3.301
   67POPE   C29 6774   2.315   1.027   3.406
   67POPE   H91 6775   2.211   1.059   3.390
   67POPE  C210 6776   2.366   1.034   3.530
   67POPE  H101 6777   2.302   1.070   3.612
   67POPE  C211 6778   2.506   0.994   3.571
   67POPE  H11R 6779   2.576   1.075   3.540
   67POPE  H11S 6780   2.538   0.901   3.519
   67POPE  C212 6781   2.522   0.975   3.723
   67POPE  H12R 6782   2.463   0.887   3.756
   67POPE  H12S 6783   2.484   1.064   3.777
   67POPE  C213 6784   2.669   0.955   3.761
   67POPE  H13R 6785   2.730   1.034   3.712
   67POPE  H13S 6786   2.705   0.857   3.721
   67POPE  C214 6787   2.697   0.962   3.912
   67POPE  H14R 6788   2.673   1.063   3.950
   67POPE  H14S 6789   2.806   0.944   3.927
   67POPE  C215 6790   2.622   0.858   3.995
   67POPE  H15R 6791   2.632   0.758   3.947
   67POPE  H15S 6792   2.514   0.883   3.998
   67POPE  C216 6793   2.676   0.849   4.138
   67POPE  H16R 6794   2.660   0.947   4.187
   67POPE  H16S 6795   2.786   0.831   4.136
   67POPE  C217 6796   2.609   0.738   4.220
   67POPE  H17R 6797   2.511   0.713   4.174
   67POPE  H17S 6798   2.589   0.775   4.323
   67POPE  C218 6799   2.694   0.611   4.232
   67POPE  H18R 6800   2.734   0.581   4.133
   67POPE  H18S 6801   2.633   0.528   4.273
   67POPE  H18T 6802   2.779   0.629   4.302
   67POPE   C33 6803   2.693   1.195   2.879
   67POPE   H3X 6804   2.590   1.230   2.901
   67POPE   H3Y 6805   2.727   1.247   2.786
   67POPE   C34 6806   2.784   1.235   2.996
   67POPE   H4X 6807   2.805   1.344   2.990
   67POPE   H4Y 6808   2.881   1.183   2.986
   67POPE   C35 6809   2.723   1.205   3.134
   67POPE   H5X 6810   2.654   1.118   3.129
   67POPE   H5Y 6811   2.664   1.293   3.165
   67POPE   C36 6812   2.833   1.173   3.236
   67POPE   H6X 6813   2.921   1.237   3.214
   67POPE   H6Y 6814   2.869   1.069   3.221
   67POPE   C37 6815   2.799   1.194   3.384
   67POPE   H7X 6816   2.896   1.205   3.438
   67POPE   H7Y 6817   2.749   1.103   3.423
   67POPE   C38 6818   2.715   1.318   3.419
   67POPE   H8X 6819   2.611   1.301   3.386
   67POPE   H8Y 6820   2.754   1.407   3.366
   67POPE   C39 6821   2.716   1.344   3.571
   67POPE   H9X 6822   2.818   1.377   3.602
   67POPE   H9Y 6823   2.695   1.248   3.622
   67POPE  C310 6824   2.612   1.448   3.615
   67POPE  H10X 6825   2.513   1.417   3.576
   67POPE  H10Y 6826   2.636   1.546   3.567
   67POPE  C311 6827   2.602   1.466   3.767
   67POPE  H11X 6828   2.520   1.539   3.788
   67POPE  H11Y 6829   2.696   1.510   3.807
   67POPE  C312 6830   2.571   1.335   3.841
   67POPE  H12X 6831   2.660   1.269   3.841
   67POPE  H12Y 6832   2.492   1.283   3.784
   67POPE  C313 6833   2.519   1.353   3.985
   67POPE  H13X 6834   2.476   1.255   4.015
   67POPE  H13Y 6835   2.437   1.427   3.986
   67POPE  C314 6836   2.626   1.392   4.088
   67POPE  H14X 6837   2.626   1.502   4.105
   67POPE  H14Y 6838   2.725   1.370   4.042
   67POPE  C315 6839   2.615   1.316   4.221
   67POPE  H15X 6840   2.718   1.289   4.253
   67POPE  H15Y 6841   2.561   1.220   4.206
   67POPE  C316 6842   2.552   1.393   4.338
   67POPE  H16X 6843   2.607   1.488   4.356
   67POPE  H16Y 6844   2.558   1.332   4.431
   67POPE  H16Z 6845   2.446   1.417   4.318
   68POPE     N 6846   3.773   7.130   2.460
   68POPE   HN1 6847   3.816   7.101   2.550
   68POPE   HN2 6848   3.762   7.233   2.454
   68POPE   HN3 6849   3.677   7.091   2.452
   68POPE   C12 6850   3.850   7.074   2.343
   68POPE  H12A 6851   3.797   7.105   2.250
   68POPE  H12B 6852   3.844   6.964   2.352
   68POPE   C11 6853   3.996   7.124   2.340
   68POPE  H11A 6854   4.045   7.110   2.439
   68POPE  H11B 6855   3.996   7.234   2.321
   68POPE     P 6856   4.102   6.904   2.246
   68POPE   O13 6857   4.238   6.875   2.196
   68POPE   O14 6858   3.991   6.839   2.172
   68POPE   O11 6859   4.087   6.874   2.401
   68POPE   O12 6860   4.072   7.060   2.238
   68POPE    C1 6861   4.191   6.809   2.476
   68POPE    HA 6862   4.291   6.850   2.451
   68POPE    HB 6863   4.190   6.701   2.452
   68POPE    C2 6864   4.171   6.823   2.631
   68POPE    HS 6865   4.064   6.803   2.654
   68POPE   O21 6866   4.213   6.952   2.674
   68POPE   C21 6867   4.122   7.044   2.694
   68POPE   O22 6868   4.002   7.036   2.670
   68POPE   C22 6869   4.194   7.165   2.754
   68POPE   H2R 6870   4.291   7.176   2.702
   68POPE   H2S 6871   4.216   7.144   2.861
   68POPE    C3 6872   4.257   6.719   2.709
   68POPE    HX 6873   4.364   6.736   2.683
   68POPE    HY 6874   4.230   6.619   2.670
   68POPE   O31 6875   4.233   6.720   2.852
   68POPE   C31 6876   4.318   6.794   2.926
   68POPE   O32 6877   4.403   6.868   2.881
   68POPE   C32 6878   4.301   6.761   3.075
   68POPE   H2X 6879   4.396   6.716   3.110
   68POPE   H2Y 6880   4.221   6.684   3.084
   68POPE   C23 6881   4.115   7.297   2.738
   68POPE   H3R 6882   4.034   7.288   2.662
   68POPE   H3S 6883   4.186   7.373   2.700
   68POPE   C24 6884   4.057   7.353   2.869
   68POPE   H4R 6885   3.994   7.441   2.841
   68POPE   H4S 6886   4.140   7.391   2.931
   68POPE   C25 6887   3.971   7.259   2.955
   68POPE   H5R 6888   4.036   7.187   3.007
   68POPE   H5S 6889   3.900   7.203   2.891
   68POPE   C26 6890   3.893   7.342   3.059
   68POPE   H6R 6891   3.826   7.412   3.004
   68POPE   H6S 6892   3.967   7.405   3.113
   68POPE   C27 6893   3.809   7.261   3.159
   68POPE   H7R 6894   3.805   7.155   3.125
   68POPE   H7S 6895   3.705   7.300   3.159
   68POPE   C28 6896   3.862   7.265   3.304
   68POPE   H8R 6897   3.966   7.225   3.301
   68POPE   H8S 6898   3.803   7.195   3.366
   68POPE   C29 6899   3.862   7.404   3.364
   68POPE   H91 6900   3.877   7.486   3.293
   68POPE  C210 6901   3.851   7.434   3.495
   68POPE  H101 6902   3.857   7.540   3.525
   68POPE  C211 6903   3.835   7.337   3.609
   68POPE  H11R 6904   3.750   7.268   3.588
   68POPE  H11S 6905   3.808   7.393   3.701
   68POPE  C212 6906   3.959   7.252   3.641
   68POPE  H12R 6907   4.047   7.318   3.658
   68POPE  H12S 6908   3.984   7.186   3.556
   68POPE  C213 6909   3.936   7.168   3.767
   68POPE  H13R 6910   3.842   7.109   3.758
   68POPE  H13S 6911   3.923   7.238   3.852
   68POPE  C214 6912   4.052   7.073   3.802
   68POPE  H14R 6913   4.045   7.051   3.911
   68POPE  H14S 6914   4.149   7.123   3.783
   68POPE  C215 6915   4.050   6.939   3.727
   68POPE  H15R 6916   4.115   6.946   3.637
   68POPE  H15S 6917   3.947   6.919   3.691
   68POPE  C216 6918   4.096   6.822   3.816
   68POPE  H16R 6919   4.087   6.726   3.761
   68POPE  H16S 6920   4.027   6.817   3.903
   68POPE  C217 6921   4.239   6.837   3.869
   68POPE  H17R 6922   4.253   6.940   3.907
   68POPE  H17S 6923   4.310   6.821   3.786
   68POPE  C218 6924   4.271   6.742   3.985
   68POPE  H18R 6925   4.377   6.756   4.017
   68POPE  H18S 6926   4.258   6.636   3.953
   68POPE  H18T 6927   4.205   6.762   4.072
   68POPE   C33 6928   4.264   6.880   3.166
   68POPE   H3X 6929   4.175   6.933   3.126
   68POPE   H3Y 6930   4.348   6.953   3.168
   68POPE   C34 6931   4.233   6.833   3.310
   68POPE   H4X 6932   4.244   6.723   3.317
   68POPE   H4Y 6933   4.127   6.858   3.333
   68POPE   C35 6934   4.322   6.895   3.419
   68POPE   H5X 6935   4.280   6.871   3.519
   68POPE   H5Y 6936   4.320   7.006   3.409
   68POPE   C36 6937   4.468   6.847   3.417
   68POPE   H6X 6938   4.500   6.827   3.313
   68POPE   H6Y 6939   4.474   6.751   3.473
   68POPE   C37 6940   4.562   6.951   3.478
   68POPE   H7X 6941   4.516   6.994   3.569
   68POPE   H7Y 6942   4.573   7.034   3.404
   68POPE   C38 6943   4.703   6.898   3.512
   68POPE   H8X 6944   4.767   6.985   3.539
   68POPE   H8Y 6945   4.746   6.852   3.421
   68POPE   C39 6946   4.707   6.796   3.627
   68POPE   H9X 6947   4.813   6.766   3.643
   68POPE   H9Y 6948   4.651   6.705   3.597
   68POPE  C310 6949   4.650   6.846   3.762
   68POPE  H10X 6950   4.653   6.762   3.834
   68POPE  H10Y 6951   4.543   6.875   3.749
   68POPE  C311 6952   4.727   6.964   3.823
   68POPE  H11X 6953   4.717   7.054   3.758
   68POPE  H11Y 6954   4.835   6.938   3.827
   68POPE  C312 6955   4.679   6.997   3.965
   68POPE  H12X 6956   4.688   6.902   4.022
   68POPE  H12Y 6957   4.571   7.025   3.965
   68POPE  C313 6958   4.765   7.104   4.035
   68POPE  H13X 6959   4.821   7.161   3.958
   68POPE  H13Y 6960   4.839   7.046   4.093
   68POPE  C314 6961   4.704   7.201   4.139
   68POPE  H14X 6962   4.787   7.230   4.207
   68POPE  H14Y 6963   4.629   7.150   4.202
   68POPE  C315 6964   4.649   7.335   4.086
   68POPE  H15X 6965   4.653   7.409   4.170
   68POPE  H15Y 6966   4.540   7.323   4.065
   68POPE  C316 6967   4.717   7.395   3.963
   68POPE  H16X 6968   4.659   7.484   3.928
   68POPE  H16Y 6969   4.719   7.323   3.879
   68POPE  H16Z 6970   4.821   7.427   3.985
   69POPE     N 6971   4.869   6.885   2.211
   69POPE   HN1 6972   4.820   6.967   2.252
   69POPE   HN2 6973   4.811   6.849   2.132
   69POPE   HN3 6974   4.876   6.809   2.281
   69POPE   C12 6975   5.006   6.932   2.169
   69POPE  H12A 6976   4.992   7.011   2.092
   69POPE  H12B 6977   5.061   6.847   2.123
   69POPE   C11 6978   5.082   6.989   2.290
   69POPE  H11A 6979   5.187   7.010   2.261
   69POPE  H11B 6980   5.089   6.913   2.370
   69POPE     P 6981   5.052   7.250   2.290
   69POPE   O13 6982   4.926   7.318   2.252
   69POPE   O14 6983   5.150   7.235   2.179
   69POPE   O11 6984   5.119   7.316   2.415
   69POPE   O12 6985   5.013   7.104   2.339
   69POPE    C1 6986   5.222   7.251   2.492
   69POPE    HA 6987   5.318   7.303   2.474
   69POPE    HB 6988   5.238   7.145   2.463
   69POPE    C2 6989   5.194   7.257   2.645
   69POPE    HS 6990   5.273   7.202   2.700
   69POPE   O21 6991   5.065   7.202   2.679
   69POPE   C21 6992   5.054   7.070   2.666
   69POPE   O22 6993   5.139   6.995   2.624
   69POPE   C22 6994   4.914   7.025   2.711
   69POPE   H2R 6995   4.853   7.021   2.619
   69POPE   H2S 6996   4.871   7.101   2.779
   69POPE    C3 6997   5.203   7.405   2.693
   69POPE    HX 6998   5.120   7.458   2.642
   69POPE    HY 6999   5.299   7.451   2.660
   69POPE   O31 7000   5.184   7.418   2.835
   69POPE   C31 7001   5.288   7.393   2.913
   69POPE   O32 7002   5.400   7.362   2.877
   69POPE   C32 7003   5.237   7.390   3.058
   69POPE   H2X 7004   5.266   7.291   3.100
   69POPE   H2Y 7005   5.127   7.395   3.050
   69POPE   C23 7006   4.912   6.885   2.779
   69POPE   H3R 7007   4.970   6.812   2.718
   69POPE   H3S 7008   4.807   6.850   2.782
   69POPE   C24 7009   4.965   6.882   2.924
   69POPE   H4R 7010   4.911   6.957   2.985
   69POPE   H4S 7011   5.073   6.909   2.924
   69POPE   C25 7012   4.945   6.745   2.993
   69POPE   H5R 7013   4.974   6.667   2.919
   69POPE   H5S 7014   4.838   6.730   3.018
   69POPE   C26 7015   5.033   6.723   3.118
   69POPE   H6R 7016   5.138   6.743   3.088
   69POPE   H6S 7017   5.027   6.616   3.147
   69POPE   C27 7018   4.998   6.802   3.245
   69POPE   H7R 7019   4.912   6.753   3.294
   69POPE   H7S 7020   4.964   6.905   3.218
   69POPE   C28 7021   5.115   6.809   3.346
   69POPE   H8R 7022   5.141   6.704   3.373
   69POPE   H8S 7023   5.078   6.858   3.439
   69POPE   C29 7024   5.240   6.879   3.297
   69POPE   H91 7025   5.260   6.869   3.189
   69POPE  C210 7026   5.329   6.950   3.368
   69POPE  H101 7027   5.415   6.995   3.315
   69POPE  C211 7028   5.326   6.979   3.516
   69POPE  H11R 7029   5.249   7.057   3.533
   69POPE  H11S 7030   5.422   7.028   3.545
   69POPE  C212 7031   5.304   6.862   3.616
   69POPE  H12R 7032   5.404   6.836   3.658
   69POPE  H12S 7033   5.267   6.771   3.564
   69POPE  C213 7034   5.209   6.895   3.733
   69POPE  H13R 7035   5.226   6.823   3.815
   69POPE  H13S 7036   5.103   6.884   3.699
   69POPE  C214 7037   5.228   7.038   3.783
   69POPE  H14R 7038   5.158   7.104   3.729
   69POPE  H14S 7039   5.331   7.070   3.758
   69POPE  C215 7040   5.212   7.062   3.933
   69POPE  H15R 7041   5.284   7.144   3.955
   69POPE  H15S 7042   5.243   6.974   3.994
   69POPE  C216 7043   5.078   7.121   3.975
   69POPE  H16R 7044   5.006   7.036   3.972
   69POPE  H16S 7045   5.043   7.194   3.899
   69POPE  C217 7046   5.083   7.190   4.112
   69POPE  H17R 7047   5.166   7.146   4.171
   69POPE  H17S 7048   4.991   7.169   4.170
   69POPE  C218 7049   5.099   7.343   4.103
   69POPE  H18R 7050   5.182   7.370   4.034
   69POPE  H18S 7051   5.123   7.386   4.202
   69POPE  H18T 7052   5.006   7.390   4.065
   69POPE   C33 7053   5.284   7.502   3.153
   69POPE   H3X 7054   5.278   7.600   3.101
   69POPE   H3Y 7055   5.390   7.482   3.178
   69POPE   C34 7056   5.204   7.513   3.285
   69POPE   H4X 7057   5.242   7.598   3.344
   69POPE   H4Y 7058   5.223   7.420   3.344
   69POPE   C35 7059   5.052   7.527   3.262
   69POPE   H5X 7060   5.018   7.424   3.236
   69POPE   H5Y 7061   5.033   7.591   3.173
   69POPE   C36 7062   4.959   7.567   3.378
   69POPE   H6X 7063   4.973   7.674   3.404
   69POPE   H6Y 7064   4.987   7.508   3.467
   69POPE   C37 7065   4.810   7.538   3.344
   69POPE   H7X 7066   4.804   7.461   3.264
   69POPE   H7Y 7067   4.769   7.629   3.296
   69POPE   C38 7068   4.719   7.493   3.461
   69POPE   H8X 7069   4.628   7.558   3.455
   69POPE   H8Y 7070   4.768   7.512   3.559
   69POPE   C39 7071   4.669   7.347   3.454
   69POPE   H9X 7072   4.743   7.275   3.495
   69POPE   H9Y 7073   4.653   7.322   3.347
   69POPE  C310 7074   4.536   7.320   3.525
   69POPE  H10X 7075   4.495   7.224   3.488
   69POPE  H10Y 7076   4.466   7.402   3.496
   69POPE  C311 7077   4.537   7.311   3.678
   69POPE  H11X 7078   4.574   7.406   3.721
   69POPE  H11Y 7079   4.608   7.230   3.705
   69POPE  C312 7080   4.397   7.279   3.734
   69POPE  H12X 7081   4.340   7.218   3.660
   69POPE  H12Y 7082   4.342   7.374   3.750
   69POPE  C313 7083   4.403   7.198   3.864
   69POPE  H13X 7084   4.507   7.206   3.901
   69POPE  H13Y 7085   4.385   7.091   3.841
   69POPE  C314 7086   4.310   7.247   3.976
   69POPE  H14X 7087   4.203   7.249   3.944
   69POPE  H14Y 7088   4.337   7.352   3.999
   69POPE  C315 7089   4.324   7.162   4.103
   69POPE  H15X 7090   4.431   7.135   4.117
   69POPE  H15Y 7091   4.268   7.067   4.091
   69POPE  C316 7092   4.276   7.235   4.229
   69POPE  H16X 7093   4.290   7.171   4.319
   69POPE  H16Y 7094   4.168   7.259   4.219
   69POPE  H16Z 7095   4.333   7.329   4.243
   70POPE     N 7096   0.346   4.974   2.079
   70POPE   HN1 7097   0.306   5.064   2.046
   70POPE   HN2 7098   0.428   4.950   2.020
   70POPE   HN3 7099   0.271   4.903   2.061
   70POPE   C12 7100   0.379   4.972   2.226
   70POPE  H12A 7101   0.443   5.060   2.249
   70POPE  H12B 7102   0.438   4.879   2.245
   70POPE   C11 7103   0.251   4.970   2.310
   70POPE  H11A 7104   0.201   5.069   2.304
   70POPE  H11B 7105   0.276   4.954   2.417
   70POPE     P 7106   0.156   4.725   2.320
   70POPE   O13 7107   0.296   4.680   2.330
   70POPE   O14 7108   0.072   4.644   2.229
   70POPE   O11 7109   0.088   4.742   2.461
   70POPE   O12 7110   0.160   4.871   2.259
   70POPE    C1 7111  -0.016   4.838   2.482
   70POPE    HA 7112  -0.108   4.806   2.429
   70POPE    HB 7113   0.012   4.939   2.445
   70POPE    C2 7114  -0.052   4.858   2.633
   70POPE    HS 7115  -0.146   4.918   2.634
   70POPE   O21 7116   0.054   4.934   2.695
   70POPE   C21 7117   0.024   4.980   2.815
   70POPE   O22 7118  -0.079   4.960   2.876
   70POPE   C22 7119   0.141   5.063   2.868
   70POPE   H2R 7120   0.101   5.119   2.956
   70POPE   H2S 7121   0.168   5.136   2.789
   70POPE    C3 7122  -0.082   4.722   2.707
   70POPE    HX 7123  -0.145   4.661   2.639
   70POPE    HY 7124  -0.143   4.743   2.797
   70POPE   O31 7125   0.041   4.650   2.734
   70POPE   C31 7126   0.076   4.640   2.862
   70POPE   O32 7127   0.003   4.652   2.958
   70POPE   C32 7128   0.227   4.621   2.867
   70POPE   H2X 7129   0.273   4.702   2.806
   70POPE   H2Y 7130   0.251   4.524   2.819
   70POPE   C23 7131   0.264   4.976   2.906
   70POPE   H3R 7132   0.332   4.966   2.819
   70POPE   H3S 7133   0.226   4.875   2.930
   70POPE   C24 7134   0.344   5.020   3.031
   70POPE   H4R 7135   0.404   5.110   3.007
   70POPE   H4S 7136   0.416   4.939   3.056
   70POPE   C25 7137   0.259   5.047   3.156
   70POPE   H5R 7138   0.203   5.143   3.144
   70POPE   H5S 7139   0.328   5.060   3.242
   70POPE   C26 7140   0.155   4.941   3.192
   70POPE   H6R 7141   0.211   4.852   3.229
   70POPE   H6S 7142   0.096   4.911   3.104
   70POPE   C27 7143   0.056   4.992   3.299
   70POPE   H7R 7144   0.004   5.082   3.260
   70POPE   H7S 7145   0.113   5.022   3.389
   70POPE   C28 7146  -0.050   4.888   3.339
   70POPE   H8R 7147  -0.124   4.880   3.257
   70POPE   H8S 7148  -0.105   4.923   3.429
   70POPE   C29 7149   0.014   4.754   3.362
   70POPE   H91 7150  -0.006   4.680   3.284
   70POPE  C210 7151   0.094   4.719   3.464
   70POPE  H101 7152   0.135   4.617   3.460
   70POPE  C211 7153   0.141   4.801   3.583
   70POPE  H11R 7154   0.074   4.781   3.669
   70POPE  H11S 7155   0.133   4.910   3.564
   70POPE  C212 7156   0.286   4.771   3.631
   70POPE  H12R 7157   0.297   4.816   3.732
   70POPE  H12S 7158   0.356   4.824   3.562
   70POPE  C213 7159   0.327   4.622   3.637
   70POPE  H13R 7160   0.326   4.581   3.534
   70POPE  H13S 7161   0.251   4.567   3.697
   70POPE  C214 7162   0.464   4.589   3.697
   70POPE  H14R 7163   0.543   4.632   3.631
   70POPE  H14S 7164   0.477   4.479   3.697
   70POPE  C215 7165   0.488   4.640   3.840
   70POPE  H15R 7166   0.479   4.751   3.838
   70POPE  H15S 7167   0.591   4.615   3.872
   70POPE  C216 7168   0.389   4.580   3.942
   70POPE  H16R 7169   0.413   4.473   3.957
   70POPE  H16S 7170   0.286   4.586   3.902
   70POPE  C217 7171   0.388   4.652   4.077
   70POPE  H17R 7172   0.487   4.640   4.127
   70POPE  H17S 7173   0.312   4.603   4.141
   70POPE  C218 7174   0.355   4.802   4.067
   70POPE  H18R 7175   0.442   4.858   4.025
   70POPE  H18S 7176   0.331   4.845   4.166
   70POPE  H18T 7177   0.268   4.817   4.000
   70POPE   C33 7178   0.284   4.625   3.011
   70POPE   H3X 7179   0.242   4.540   3.069
   70POPE   H3Y 7180   0.251   4.717   3.065
   70POPE   C34 7181   0.438   4.620   3.012
   70POPE   H4X 7182   0.480   4.722   3.024
   70POPE   H4Y 7183   0.471   4.583   2.912
   70POPE   C35 7184   0.495   4.525   3.118
   70POPE   H5X 7185   0.590   4.482   3.081
   70POPE   H5Y 7186   0.424   4.440   3.130
   70POPE   C36 7187   0.521   4.591   3.254
   70POPE   H6X 7188   0.517   4.512   3.332
   70POPE   H6Y 7189   0.440   4.664   3.277
   70POPE   C37 7190   0.659   4.657   3.261
   70POPE   H7X 7191   0.666   4.737   3.185
   70POPE   H7Y 7192   0.735   4.580   3.236
   70POPE   C38 7193   0.694   4.715   3.400
   70POPE   H8X 7194   0.802   4.737   3.405
   70POPE   H8Y 7195   0.674   4.636   3.476
   70POPE   C39 7196   0.616   4.843   3.434
   70POPE   H9X 7197   0.508   4.821   3.426
   70POPE   H9Y 7198   0.639   4.920   3.357
   70POPE  C310 7199   0.648   4.899   3.574
   70POPE  H10X 7200   0.756   4.924   3.581
   70POPE  H10Y 7201   0.628   4.820   3.650
   70POPE  C311 7202   0.563   5.022   3.609
   70POPE  H11X 7203   0.465   5.014   3.559
   70POPE  H11Y 7204   0.613   5.112   3.566
   70POPE  C312 7205   0.537   5.045   3.760
   70POPE  H12X 7206   0.634   5.045   3.815
   70POPE  H12Y 7207   0.474   4.962   3.799
   70POPE  C313 7208   0.465   5.179   3.779
   70POPE  H13X 7209   0.371   5.177   3.721
   70POPE  H13Y 7210   0.534   5.255   3.736
   70POPE  C314 7211   0.432   5.229   3.920
   70POPE  H14X 7212   0.409   5.337   3.911
   70POPE  H14Y 7213   0.520   5.221   3.987
   70POPE  C315 7214   0.307   5.163   3.981
   70POPE  H15X 7215   0.333   5.061   4.016
   70POPE  H15Y 7216   0.230   5.152   3.902
   70POPE  C316 7217   0.248   5.245   4.096
   70POPE  H16X 7218   0.212   5.343   4.059
   70POPE  H16Y 7219   0.325   5.263   4.174
   70POPE  H16Z 7220   0.162   5.191   4.142
   71POPE     N 7221   0.192   5.458   2.356
   71POPE   HN1 7222   0.145   5.531   2.300
   71POPE   HN2 7223   0.160   5.366   2.319
   71POPE   HN3 7224   0.154   5.465   2.452
   71POPE   C12 7225   0.341   5.479   2.345
   71POPE  H12A 7226   0.368   5.461   2.239
   71POPE  H12B 7227   0.394   5.405   2.408
   71POPE   C11 7228   0.381   5.623   2.382
   71POPE  H11A 7229   0.400   5.632   2.491
   71POPE  H11B 7230   0.298   5.694   2.360
   71POPE     P 7231   0.641   5.679   2.349
   71POPE   O13 7232   0.686   5.812   2.303
   71POPE   O14 7233   0.717   5.560   2.303
   71POPE   O11 7234   0.628   5.681   2.506
   71POPE   O12 7235   0.491   5.663   2.302
   71POPE    C1 7236   0.732   5.637   2.593
   71POPE    HA 7237   0.830   5.681   2.565
   71POPE    HB 7238   0.743   5.526   2.587
   71POPE    C2 7239   0.699   5.678   2.740
   71POPE    HS 7240   0.772   5.633   2.810
   71POPE   O21 7241   0.564   5.637   2.771
   71POPE   C21 7242   0.550   5.505   2.778
   71POPE   O22 7243   0.640   5.425   2.792
   71POPE   C22 7244   0.404   5.470   2.747
   71POPE   H2R 7245   0.402   5.444   2.639
   71POPE   H2S 7246   0.339   5.558   2.762
   71POPE    C3 7247   0.711   5.833   2.752
   71POPE    HX 7248   0.633   5.877   2.686
   71POPE    HY 7249   0.811   5.858   2.710
   71POPE   O31 7250   0.697   5.885   2.886
   71POPE   C31 7251   0.735   6.014   2.897
   71POPE   O32 7252   0.804   6.071   2.815
   71POPE   C32 7253   0.673   6.080   3.020
   71POPE   H2X 7254   0.650   6.185   2.992
   71POPE   H2Y 7255   0.746   6.081   3.104
   71POPE   C23 7256   0.350   5.347   2.824
   71POPE   H3R 7257   0.424   5.264   2.824
   71POPE   H3S 7258   0.261   5.312   2.767
   71POPE   C24 7259   0.300   5.372   2.968
   71POPE   H4R 7260   0.383   5.405   3.034
   71POPE   H4S 7261   0.265   5.274   3.008
   71POPE   C25 7262   0.181   5.468   2.978
   71POPE   H5R 7263   0.150   5.496   2.875
   71POPE   H5S 7264   0.215   5.559   3.032
   71POPE   C26 7265   0.058   5.421   3.055
   71POPE   H6R 7266   0.059   5.313   3.078
   71POPE   H6S 7267  -0.032   5.442   2.993
   71POPE   C27 7268   0.027   5.507   3.178
   71POPE   H7R 7269  -0.076   5.484   3.210
   71POPE   H7S 7270   0.027   5.614   3.149
   71POPE   C28 7271   0.128   5.489   3.290
   71POPE   H8R 7272   0.098   5.562   3.369
   71POPE   H8S 7273   0.227   5.522   3.252
   71POPE   C29 7274   0.136   5.349   3.345
   71POPE   H91 7275   0.039   5.301   3.363
   71POPE  C210 7276   0.250   5.282   3.374
   71POPE  H101 7277   0.240   5.182   3.418
   71POPE  C211 7278   0.393   5.329   3.358
   71POPE  H11R 7279   0.402   5.414   3.287
   71POPE  H11S 7280   0.456   5.247   3.319
   71POPE  C212 7281   0.443   5.371   3.497
   71POPE  H12R 7282   0.442   5.278   3.558
   71POPE  H12S 7283   0.369   5.441   3.541
   71POPE  C213 7284   0.583   5.436   3.504
   71POPE  H13R 7285   0.588   5.517   3.429
   71POPE  H13S 7286   0.659   5.360   3.476
   71POPE  C214 7287   0.617   5.494   3.644
   71POPE  H14R 7288   0.702   5.436   3.687
   71POPE  H14S 7289   0.531   5.482   3.712
   71POPE  C215 7290   0.656   5.643   3.640
   71POPE  H15R 7291   0.568   5.703   3.607
   71POPE  H15S 7292   0.736   5.655   3.563
   71POPE  C216 7293   0.707   5.704   3.772
   71POPE  H16R 7294   0.755   5.801   3.748
   71POPE  H16S 7295   0.785   5.638   3.817
   71POPE  C217 7296   0.597   5.732   3.875
   71POPE  H17R 7297   0.559   5.635   3.913
   71POPE  H17S 7298   0.513   5.783   3.824
   71POPE  C218 7299   0.643   5.819   3.992
   71POPE  H18R 7300   0.559   5.838   4.063
   71POPE  H18S 7301   0.680   5.917   3.955
   71POPE  H18T 7302   0.725   5.770   4.048
   71POPE   C33 7303   0.542   6.011   3.060
   71POPE   H3X 7304   0.563   5.923   3.125
   71POPE   H3Y 7305   0.494   5.976   2.966
   71POPE   C34 7306   0.433   6.098   3.122
   71POPE   H4X 7307   0.340   6.038   3.123
   71POPE   H4Y 7308   0.411   6.183   3.053
   71POPE   C35 7309   0.456   6.143   3.266
   71POPE   H5X 7310   0.519   6.235   3.269
   71POPE   H5Y 7311   0.510   6.063   3.320
   71POPE   C36 7312   0.319   6.165   3.331
   71POPE   H6X 7313   0.266   6.068   3.327
   71POPE   H6Y 7314   0.260   6.239   3.273
   71POPE   C37 7315   0.320   6.203   3.479
   71POPE   H7X 7316   0.215   6.192   3.513
   71POPE   H7Y 7317   0.344   6.311   3.492
   71POPE   C38 7318   0.415   6.119   3.563
   71POPE   H8X 7319   0.520   6.150   3.542
   71POPE   H8Y 7320   0.405   6.012   3.534
   71POPE   C39 7321   0.388   6.133   3.713
   71POPE   H9X 7322   0.418   6.236   3.744
   71POPE   H9Y 7323   0.453   6.061   3.768
   71POPE  C310 7324   0.241   6.109   3.751
   71POPE  H10X 7325   0.212   6.017   3.697
   71POPE  H10Y 7326   0.175   6.190   3.713
   71POPE  C311 7327   0.219   6.098   3.902
   71POPE  H11X 7328   0.201   6.199   3.945
   71POPE  H11Y 7329   0.311   6.057   3.948
   71POPE  C312 7330   0.104   6.004   3.943
   71POPE  H12X 7331   0.005   6.048   3.921
   71POPE  H12Y 7332   0.112   5.988   4.053
   71POPE  C313 7333   0.117   5.871   3.870
   71POPE  H13X 7334   0.227   5.857   3.857
   71POPE  H13Y 7335   0.072   5.881   3.769
   71POPE  C314 7336   0.057   5.749   3.937
   71POPE  H14X 7337   0.033   5.675   3.858
   71POPE  H14Y 7338  -0.040   5.776   3.984
   71POPE  C315 7339   0.149   5.680   4.038
   71POPE  H15X 7340   0.104   5.581   4.061
   71POPE  H15Y 7341   0.144   5.740   4.131
   71POPE  C316 7342   0.297   5.661   4.005
   71POPE  H16X 7343   0.344   5.589   4.076
   71POPE  H16Y 7344   0.350   5.758   4.014
   71POPE  H16Z 7345   0.313   5.621   3.902
   72POPE     N 7346   7.629   4.421   2.231
   72POPE   HN1 7347   7.700   4.352   2.261
   72POPE   HN2 7348   7.678   4.509   2.202
   72POPE   HN3 7349   7.566   4.447   2.310
   72POPE   C12 7350   7.544   4.356   2.126
   72POPE  H12A 7351   7.605   4.346   2.033
   72POPE  H12B 7352   7.457   4.421   2.107
   72POPE   C11 7353   7.502   4.216   2.175
   72POPE  H11A 7354   7.445   4.165   2.095
   72POPE  H11B 7355   7.435   4.226   2.263
   72POPE     P 7356   7.632   4.031   2.314
   72POPE   O13 7357   7.778   4.011   2.326
   72POPE   O14 7358   7.548   3.918   2.272
   72POPE   O11 7359   7.574   4.104   2.442
   72POPE   O12 7360   7.620   4.143   2.204
   72POPE    C1 7361   7.633   4.220   2.501
   72POPE    HA 7362   7.552   4.293   2.523
   72POPE    HB 7363   7.706   4.269   2.434
   72POPE    C2 7364   7.708   4.191   2.635
   72POPE    HS 7365   7.781   4.110   2.614
   72POPE   O21 7366   7.612   4.156   2.737
   72POPE   C21 7367   7.661   4.078   2.832
   72POPE   O22 7368   7.771   4.025   2.832
   72POPE   C22 7369   7.561   4.071   2.948
   72POPE   H2R 7370   7.461   4.050   2.906
   72POPE   H2S 7371   7.559   4.172   2.996
   72POPE    C3 7372   7.784   4.320   2.678
   72POPE    HX 7373   7.707   4.394   2.708
   72POPE    HY 7374   7.837   4.364   2.591
   72POPE   O31 7375   7.873   4.298   2.790
   72POPE   C31 7376   7.995   4.255   2.759
   72POPE   O32 7377   8.036   4.236   2.645
   72POPE   C32 7378   8.083   4.251   2.884
   72POPE   H2X 7379   8.101   4.356   2.915
   72POPE   H2Y 7380   8.180   4.207   2.852
   72POPE   C23 7381   7.597   3.964   3.055
   72POPE   H3R 7382   7.701   3.980   3.092
   72POPE   H3S 7383   7.594   3.864   3.007
   72POPE   C24 7384   7.500   3.967   3.174
   72POPE   H4R 7385   7.398   3.978   3.134
   72POPE   H4S 7386   7.521   4.056   3.237
   72POPE   C25 7387   7.502   3.839   3.260
   72POPE   H5R 7388   7.482   3.752   3.194
   72POPE   H5S 7389   7.418   3.844   3.333
   72POPE   C26 7390   7.631   3.811   3.339
   72POPE   H6R 7391   7.713   3.792   3.266
   72POPE   H6S 7392   7.618   3.718   3.399
   72POPE   C27 7393   7.677   3.924   3.433
   72POPE   H7R 7394   7.707   4.009   3.367
   72POPE   H7S 7395   7.767   3.892   3.489
   72POPE   C28 7396   7.573   3.977   3.535
   72POPE   H8R 7397   7.488   4.020   3.478
   72POPE   H8S 7398   7.619   4.062   3.589
   72POPE   C29 7399   7.522   3.874   3.633
   72POPE   H91 7400   7.449   3.804   3.590
   72POPE  C210 7401   7.555   3.860   3.763
   72POPE  H101 7402   7.506   3.781   3.821
   72POPE  C211 7403   7.654   3.941   3.844
   72POPE  H11R 7404   7.718   4.005   3.780
   72POPE  H11S 7405   7.721   3.870   3.896
   72POPE  C212 7406   7.590   4.030   3.953
   72POPE  H12R 7407   7.665   4.048   4.034
   72POPE  H12S 7408   7.504   3.977   3.999
   72POPE  C213 7409   7.547   4.166   3.897
   72POPE  H13R 7410   7.531   4.154   3.788
   72POPE  H13S 7411   7.630   4.240   3.911
   72POPE  C214 7412   7.416   4.219   3.956
   72POPE  H14R 7413   7.345   4.134   3.952
   72POPE  H14S 7414   7.375   4.298   3.889
   72POPE  C215 7415   7.424   4.275   4.099
   72POPE  H15R 7416   7.494   4.215   4.161
   72POPE  H15S 7417   7.322   4.267   4.143
   72POPE  C216 7418   7.460   4.424   4.105
   72POPE  H16R 7419   7.404   4.479   4.025
   72POPE  H16S 7420   7.569   4.431   4.085
   72POPE  C217 7421   7.433   4.496   4.238
   72POPE  H17R 7422   7.508   4.577   4.244
   72POPE  H17S 7423   7.452   4.425   4.322
   72POPE  C218 7424   7.298   4.565   4.253
   72POPE  H18R 7425   7.305   4.649   4.325
   72POPE  H18S 7426   7.220   4.495   4.291
   72POPE  H18T 7427   7.264   4.606   4.155
   72POPE   C33 7428   8.030   4.169   3.004
   72POPE   H3X 7429   8.112   4.163   3.079
   72POPE   H3Y 7430   8.005   4.065   2.974
   72POPE   C34 7431   7.908   4.233   3.074
   72POPE   H4X 7432   7.816   4.198   3.022
   72POPE   H4Y 7433   7.911   4.343   3.063
   72POPE   C35 7434   7.896   4.199   3.224
   72POPE   H5X 7435   7.922   4.092   3.240
   72POPE   H5Y 7436   7.790   4.213   3.254
   72POPE   C36 7437   7.984   4.289   3.313
   72POPE   H6X 7438   7.949   4.394   3.303
   72POPE   H6Y 7439   8.089   4.285   3.276
   72POPE   C37 7440   7.985   4.250   3.461
   72POPE   H7X 7441   8.046   4.324   3.517
   72POPE   H7Y 7442   8.038   4.152   3.470
   72POPE   C38 7443   7.847   4.240   3.527
   72POPE   H8X 7444   7.861   4.204   3.632
   72POPE   H8Y 7445   7.783   4.165   3.475
   72POPE   C39 7446   7.775   4.375   3.529
   72POPE   H9X 7447   7.740   4.404   3.428
   72POPE   H9Y 7448   7.856   4.446   3.558
   72POPE  C310 7449   7.663   4.388   3.633
   72POPE  H10X 7450   7.681   4.309   3.710
   72POPE  H10Y 7451   7.564   4.366   3.587
   72POPE  C311 7452   7.663   4.525   3.703
   72POPE  H11X 7453   7.583   4.591   3.664
   72POPE  H11Y 7454   7.760   4.575   3.682
   72POPE  C312 7455   7.658   4.514   3.856
   72POPE  H12X 7456   7.724   4.430   3.886
   72POPE  H12Y 7457   7.553   4.488   3.882
   72POPE  C313 7458   7.707   4.637   3.934
   72POPE  H13X 7459   7.796   4.680   3.884
   72POPE  H13Y 7460   7.739   4.602   4.034
   72POPE  C314 7461   7.601   4.747   3.955
   72POPE  H14X 7462   7.513   4.703   4.007
   72POPE  H14Y 7463   7.567   4.782   3.855
   72POPE  C315 7464   7.653   4.867   4.036
   72POPE  H15X 7465   7.575   4.946   4.034
   72POPE  H15Y 7466   7.742   4.909   3.984
   72POPE  C316 7467   7.689   4.838   4.182
   72POPE  H16X 7468   7.602   4.793   4.235
   72POPE  H16Y 7469   7.718   4.931   4.235
   72POPE  H16Z 7470   7.774   4.767   4.188
   73POPE     N 7471   7.698   3.073   2.365
   73POPE   HN1 7472   7.678   3.124   2.453
   73POPE   HN2 7473   7.667   3.136   2.287
   73POPE   HN3 7474   7.641   2.986   2.362
   73POPE   C12 7475   7.841   3.030   2.346
   73POPE  H12A 7476   7.906   3.089   2.414
   73POPE  H12B 7477   7.869   3.051   2.241
   73POPE   C11 7478   7.856   2.878   2.370
   73POPE  H11A 7479   7.849   2.857   2.479
   73POPE  H11B 7480   7.957   2.850   2.335
   73POPE     P 7481   7.777   2.647   2.281
   73POPE   O13 7482   7.827   2.630   2.143
   73POPE   O14 7483   7.653   2.576   2.315
   73POPE   O11 7484   7.895   2.612   2.383
   73POPE   O12 7485   7.755   2.805   2.301
   73POPE    C1 7486   7.995   2.520   2.336
   73POPE    HA 7487   8.054   2.564   2.253
   73POPE    HB 7488   7.947   2.428   2.296
   73POPE    C2 7489   8.099   2.472   2.443
   73POPE    HS 7490   8.152   2.385   2.400
   73POPE   O21 7491   8.036   2.434   2.566
   73POPE   C21 7492   7.955   2.330   2.562
   73POPE   O22 7493   7.930   2.260   2.465
   73POPE   C22 7494   7.904   2.305   2.704
   73POPE   H2R 7495   7.987   2.324   2.776
   73POPE   H2S 7496   7.876   2.198   2.711
   73POPE    C3 7497   8.207   2.579   2.477
   73POPE    HX 7498   8.248   2.620   2.383
   73POPE    HY 7499   8.290   2.522   2.525
   73POPE   O31 7500   8.162   2.680   2.571
   73POPE   C31 7501   8.152   2.803   2.528
   73POPE   O32 7502   8.183   2.844   2.417
   73POPE   C32 7503   8.081   2.891   2.632
   73POPE   H2X 7504   7.990   2.838   2.667
   73POPE   H2Y 7505   8.050   2.983   2.579
   73POPE   C23 7506   7.782   2.392   2.740
   73POPE   H3R 7507   7.745   2.361   2.840
   73POPE   H3S 7508   7.701   2.373   2.666
   73POPE   C24 7509   7.806   2.543   2.747
   73POPE   H4R 7510   7.708   2.594   2.753
   73POPE   H4S 7511   7.854   2.578   2.653
   73POPE   C25 7512   7.890   2.588   2.868
   73POPE   H5R 7513   7.903   2.698   2.854
   73POPE   H5S 7514   7.991   2.542   2.865
   73POPE   C26 7515   7.824   2.568   3.005
   73POPE   H6R 7516   7.714   2.558   2.994
   73POPE   H6S 7517   7.842   2.660   3.065
   73POPE   C27 7518   7.881   2.450   3.086
   73POPE   H7R 7519   7.991   2.457   3.082
   73POPE   H7S 7520   7.853   2.353   3.039
   73POPE   C28 7521   7.840   2.452   3.235
   73POPE   H8R 7522   7.864   2.555   3.269
   73POPE   H8S 7523   7.907   2.383   3.290
   73POPE   C29 7524   7.697   2.420   3.270
   73POPE   H91 7525   7.657   2.327   3.227
   73POPE  C210 7526   7.616   2.490   3.352
   73POPE  H101 7527   7.513   2.454   3.367
   73POPE  C211 7528   7.651   2.616   3.427
   73POPE  H11R 7529   7.650   2.703   3.358
   73POPE  H11S 7530   7.754   2.608   3.467
   73POPE  C212 7531   7.555   2.644   3.544
   73POPE  H12R 7532   7.561   2.560   3.617
   73POPE  H12S 7533   7.450   2.650   3.508
   73POPE  C213 7534   7.586   2.775   3.617
   73POPE  H13R 7535   7.511   2.790   3.698
   73POPE  H13S 7536   7.577   2.861   3.547
   73POPE  C214 7537   7.727   2.774   3.677
   73POPE  H14R 7538   7.799   2.788   3.593
   73POPE  H14S 7539   7.748   2.675   3.722
   73POPE  C215 7540   7.751   2.883   3.781
   73POPE  H15R 7541   7.705   2.979   3.749
   73POPE  H15S 7542   7.861   2.900   3.789
   73POPE  C216 7543   7.697   2.840   3.918
   73POPE  H16R 7544   7.746   2.744   3.945
   73POPE  H16S 7545   7.588   2.820   3.910
   73POPE  C217 7546   7.723   2.942   4.029
   73POPE  H17R 7547   7.674   2.903   4.121
   73POPE  H17S 7548   7.673   3.038   4.004
   73POPE  C218 7549   7.871   2.965   4.055
   73POPE  H18R 7550   7.925   2.869   4.069
   73POPE  H18S 7551   7.886   3.026   4.147
   73POPE  H18T 7552   7.917   3.019   3.970
   73POPE   C33 7553   8.167   2.933   2.754
   73POPE   H3X 7554   8.140   3.036   2.783
   73POPE   H3Y 7555   8.276   2.932   2.730
   73POPE   C34 7556   8.143   2.843   2.875
   73POPE   H4X 7557   8.170   2.739   2.847
   73POPE   H4Y 7558   8.034   2.844   2.899
   73POPE   C35 7559   8.219   2.890   3.000
   73POPE   H5X 7560   8.306   2.950   2.968
   73POPE   H5Y 7561   8.257   2.805   3.062
   73POPE   C36 7562   8.128   2.970   3.092
   73POPE   H6X 7563   8.072   3.040   3.026
   73POPE   H6Y 7564   8.186   3.031   3.165
   73POPE   C37 7565   8.033   2.880   3.171
   73POPE   H7X 7566   8.020   2.783   3.120
   73POPE   H7Y 7567   7.933   2.928   3.178
   73POPE   C38 7568   8.084   2.856   3.313
   73POPE   H8X 7569   8.092   2.955   3.362
   73POPE   H8Y 7570   8.186   2.811   3.311
   73POPE   C39 7571   7.989   2.769   3.396
   73POPE   H9X 7572   7.893   2.759   3.341
   73POPE   H9Y 7573   7.965   2.827   3.488
   73POPE  C310 7574   8.043   2.629   3.432
   73POPE  H10X 7575   8.080   2.580   3.340
   73POPE  H10Y 7576   7.960   2.567   3.472
   73POPE  C311 7577   8.153   2.628   3.539
   73POPE  H11X 7578   8.236   2.691   3.500
   73POPE  H11Y 7579   8.191   2.524   3.552
   73POPE  C312 7580   8.102   2.679   3.674
   73POPE  H12X 7581   8.022   2.612   3.712
   73POPE  H12Y 7582   8.055   2.779   3.659
   73POPE  C313 7583   8.208   2.698   3.783
   73POPE  H13X 7584   8.195   2.623   3.864
   73POPE  H13Y 7585   8.185   2.796   3.831
   73POPE  C314 7586   8.354   2.700   3.735
   73POPE  H14X 7587   8.360   2.759   3.642
   73POPE  H14Y 7588   8.391   2.598   3.714
   73POPE  C315 7589   8.442   2.773   3.837
   73POPE  H15X 7590   8.375   2.835   3.900
   73POPE  H15Y 7591   8.507   2.843   3.781
   73POPE  C316 7592   8.528   2.687   3.926
   73POPE  H16X 7593   8.575   2.747   4.007
   73POPE  H16Y 7594   8.610   2.644   3.864
   73POPE  H16Z 7595   8.468   2.605   3.971
   74POPE     N 7596   1.801   7.227   2.339
   74POPE   HN1 7597   1.885   7.234   2.400
   74POPE   HN2 7598   1.760   7.322   2.333
   74POPE   HN3 7599   1.733   7.161   2.383
   74POPE   C12 7600   1.851   7.179   2.206
   74POPE  H12A 7601   1.764   7.163   2.138
   74POPE  H12B 7602   1.903   7.082   2.223
   74POPE   C11 7603   1.950   7.281   2.145
   74POPE  H11A 7604   1.890   7.362   2.099
   74POPE  H11B 7605   2.007   7.234   2.063
   74POPE     P 7606   2.142   7.251   2.320
   74POPE   O13 7607   2.265   7.332   2.338
   74POPE   O14 7608   2.154   7.125   2.244
   74POPE   O11 7609   2.055   7.230   2.453
   74POPE   O12 7610   2.038   7.341   2.241
   74POPE    C1 7611   2.014   7.339   2.537
   74POPE    HA 7612   1.910   7.370   2.514
   74POPE    HB 7613   2.078   7.429   2.520
   74POPE    C2 7614   2.015   7.312   2.692
   74POPE    HS 7615   2.117   7.338   2.728
   74POPE   O21 7616   1.985   7.173   2.720
   74POPE   C21 7617   2.011   7.142   2.848
   74POPE   O22 7618   2.077   7.210   2.924
   74POPE   C22 7619   1.936   7.014   2.884
   74POPE   H2R 7620   2.003   6.929   2.859
   74POPE   H2S 7621   1.845   7.005   2.820
   74POPE    C3 7622   1.911   7.402   2.767
   74POPE    HX 7623   1.914   7.504   2.721
   74POPE    HY 7624   1.945   7.416   2.872
   74POPE   O31 7625   1.777   7.346   2.754
   74POPE   C31 7626   1.726   7.292   2.866
   74POPE   O32 7627   1.767   7.309   2.978
   74POPE   C32 7628   1.610   7.198   2.828
   74POPE   H2X 7629   1.649   7.094   2.834
   74POPE   H2Y 7630   1.581   7.218   2.723
   74POPE   C23 7631   1.898   7.001   3.033
   74POPE   H3R 7632   1.820   7.075   3.061
   74POPE   H3S 7633   1.987   7.023   3.096
   74POPE   C24 7634   1.850   6.859   3.064
   74POPE   H4R 7635   1.929   6.788   3.030
   74POPE   H4S 7636   1.758   6.835   3.007
   74POPE   C25 7637   1.828   6.834   3.213
   74POPE   H5R 7638   1.901   6.892   3.273
   74POPE   H5S 7639   1.847   6.726   3.234
   74POPE   C26 7640   1.685   6.865   3.259
   74POPE   H6R 7641   1.619   6.794   3.206
   74POPE   H6S 7642   1.653   6.967   3.228
   74POPE   C27 7643   1.669   6.848   3.411
   74POPE   H7R 7644   1.741   6.771   3.445
   74POPE   H7S 7645   1.567   6.810   3.433
   74POPE   C28 7646   1.691   6.976   3.496
   74POPE   H8R 7647   1.734   6.941   3.592
   74POPE   H8S 7648   1.591   7.018   3.520
   74POPE   C29 7649   1.776   7.085   3.436
   74POPE   H91 7650   1.755   7.109   3.331
   74POPE  C210 7651   1.871   7.157   3.497
   74POPE  H101 7652   1.925   7.233   3.439
   74POPE  C211 7653   1.915   7.146   3.641
   74POPE  H11R 7654   1.983   7.059   3.653
   74POPE  H11S 7655   1.828   7.125   3.708
   74POPE  C212 7656   1.988   7.271   3.691
   74POPE  H12R 7657   2.011   7.341   3.609
   74POPE  H12S 7658   2.086   7.240   3.734
   74POPE  C213 7659   1.908   7.343   3.800
   74POPE  H13R 7660   1.800   7.321   3.790
   74POPE  H13S 7661   1.921   7.453   3.788
   74POPE  C214 7662   1.959   7.303   3.938
   74POPE  H14R 7663   2.062   7.341   3.948
   74POPE  H14S 7664   1.963   7.192   3.948
   74POPE  C215 7665   1.874   7.359   4.053
   74POPE  H15R 7666   1.798   7.285   4.084
   74POPE  H15S 7667   1.819   7.449   4.017
   74POPE  C216 7668   1.961   7.400   4.171
   74POPE  H16R 7669   1.895   7.433   4.254
   74POPE  H16S 7670   2.023   7.487   4.140
   74POPE  C217 7671   2.053   7.289   4.225
   74POPE  H17R 7672   2.127   7.335   4.293
   74POPE  H17S 7673   2.111   7.241   4.143
   74POPE  C218 7674   1.977   7.185   4.305
   74POPE  H18R 7675   1.921   7.115   4.239
   74POPE  H18S 7676   1.904   7.236   4.372
   74POPE  H18T 7677   2.046   7.127   4.370
   74POPE   C33 7678   1.486   7.211   2.921
   74POPE   H3X 7679   1.392   7.199   2.863
   74POPE   H3Y 7680   1.482   7.312   2.966
   74POPE   C34 7681   1.486   7.109   3.035
   74POPE   H4X 7682   1.590   7.079   3.057
   74POPE   H4Y 7683   1.430   7.018   3.005
   74POPE   C35 7684   1.427   7.166   3.165
   74POPE   H5X 7685   1.418   7.083   3.238
   74POPE   H5Y 7686   1.325   7.206   3.148
   74POPE   C36 7687   1.515   7.275   3.229
   74POPE   H6X 7688   1.506   7.371   3.174
   74POPE   H6Y 7689   1.621   7.243   3.222
   74POPE   C37 7690   1.480   7.296   3.376
   74POPE   H7X 7691   1.486   7.197   3.427
   74POPE   H7Y 7692   1.376   7.332   3.385
   74POPE   C38 7693   1.575   7.392   3.448
   74POPE   H8X 7694   1.545   7.497   3.428
   74POPE   H8Y 7695   1.678   7.379   3.409
   74POPE   C39 7696   1.579   7.367   3.600
   74POPE   H9X 7697   1.644   7.443   3.648
   74POPE   H9Y 7698   1.627   7.268   3.618
   74POPE  C310 7699   1.440   7.367   3.665
   74POPE  H10X 7700   1.363   7.400   3.593
   74POPE  H10Y 7701   1.442   7.443   3.746
   74POPE  C311 7702   1.400   7.230   3.725
   74POPE  H11X 7703   1.415   7.151   3.649
   74POPE  H11Y 7704   1.292   7.234   3.751
   74POPE  C312 7705   1.480   7.197   3.851
   74POPE  H12X 7706   1.466   7.282   3.921
   74POPE  H12Y 7707   1.589   7.196   3.829
   74POPE  C313 7708   1.436   7.070   3.925
   74POPE  H13X 7709   1.325   7.064   3.927
   74POPE  H13Y 7710   1.469   7.080   4.031
   74POPE  C314 7711   1.495   6.939   3.871
   74POPE  H14X 7712   1.449   6.917   3.772
   74POPE  H14Y 7713   1.468   6.856   3.939
   74POPE  C315 7714   1.647   6.943   3.854
   74POPE  H15X 7715   1.668   7.015   3.772
   74POPE  H15Y 7716   1.683   6.844   3.819
   74POPE  C316 7717   1.726   6.988   3.978
   74POPE  H16X 7718   1.714   6.915   4.061
   74POPE  H16Y 7719   1.692   7.087   4.013
   74POPE  H16Z 7720   1.834   6.996   3.953
   75POPE     N 7721   2.612   0.040   2.208
   75POPE   HN1 7722   2.645  -0.059   2.203
   75POPE   HN2 7723   2.682   0.099   2.158
   75POPE   HN3 7724   2.607   0.074   2.306
   75POPE   C12 7725   2.472   0.055   2.154
   75POPE  H12A 7726   2.403  -0.000   2.222
   75POPE  H12B 7727   2.471   0.007   2.054
   75POPE   C11 7728   2.428   0.203   2.144
   75POPE  H11A 7729   2.351   0.209   2.064
   75POPE  H11B 7730   2.513   0.266   2.109
   75POPE     P 7731   2.467   0.296   2.383
   75POPE   O13 7732   2.545   0.410   2.330
   75POPE   O14 7733   2.540   0.173   2.419
   75POPE   O11 7734   2.378   0.341   2.503
   75POPE   O12 7735   2.369   0.255   2.264
   75POPE    C1 7736   2.240   0.372   2.494
   75POPE    HA 7737   2.212   0.408   2.392
   75POPE    HB 7738   2.220   0.458   2.561
   75POPE    C2 7739   2.145   0.254   2.533
   75POPE    HS 7740   2.043   0.296   2.530
   75POPE   O21 7741   2.173   0.202   2.664
   75POPE   C21 7742   2.147   0.281   2.766
   75POPE   O22 7743   2.114   0.398   2.759
   75POPE   C22 7744   2.150   0.199   2.895
   75POPE   H2R 7745   2.207   0.105   2.878
   75POPE   H2S 7746   2.045   0.173   2.917
   75POPE    C3 7747   2.152   0.134   2.432
   75POPE    HX 7748   2.159   0.177   2.329
   75POPE    HY 7749   2.056   0.078   2.432
   75POPE   O31 7750   2.264   0.043   2.453
   75POPE   C31 7751   2.240  -0.048   2.548
   75POPE   O32 7752   2.130  -0.070   2.596
   75POPE   C32 7753   2.368  -0.122   2.584
   75POPE   H2X 7754   2.443  -0.044   2.612
   75POPE   H2Y 7755   2.405  -0.177   2.495
   75POPE   C23 7756   2.208   0.278   3.014
   75POPE   H3R 7757   2.173   0.226   3.107
   75POPE   H3S 7758   2.168   0.381   3.020
   75POPE   C24 7759   2.361   0.282   3.022
   75POPE   H4R 7760   2.399   0.178   3.023
   75POPE   H4S 7761   2.383   0.330   3.119
   75POPE   C25 7762   2.436   0.361   2.913
   75POPE   H5R 7763   2.364   0.420   2.853
   75POPE   H5S 7764   2.484   0.289   2.844
   75POPE   C26 7765   2.543   0.459   2.967
   75POPE   H6R 7766   2.490   0.547   3.010
   75POPE   H6S 7767   2.607   0.493   2.883
   75POPE   C27 7768   2.630   0.410   3.084
   75POPE   H7R 7769   2.625   0.299   3.082
   75POPE   H7S 7770   2.579   0.441   3.178
   75POPE   C28 7771   2.778   0.455   3.085
   75POPE   H8R 7772   2.793   0.526   3.001
   75POPE   H8S 7773   2.842   0.367   3.062
   75POPE   C29 7774   2.823   0.520   3.214
   75POPE   H91 7775   2.812   0.629   3.215
   75POPE  C210 7776   2.874   0.460   3.325
   75POPE  H101 7777   2.901   0.524   3.410
   75POPE  C211 7778   2.897   0.313   3.348
   75POPE  H11R 7779   2.998   0.289   3.307
   75POPE  H11S 7780   2.829   0.249   3.289
   75POPE  C212 7781   2.900   0.263   3.497
   75POPE  H12R 7782   2.951   0.340   3.558
   75POPE  H12S 7783   2.957   0.168   3.497
   75POPE  C213 7784   2.769   0.227   3.568
   75POPE  H13R 7785   2.714   0.158   3.500
   75POPE  H13S 7786   2.709   0.319   3.585
   75POPE  C214 7787   2.779   0.157   3.704
   75POPE  H14R 7788   2.853   0.210   3.768
   75POPE  H14S 7789   2.815   0.053   3.689
   75POPE  C215 7790   2.643   0.154   3.777
   75POPE  H15R 7791   2.569   0.096   3.717
   75POPE  H15S 7792   2.602   0.257   3.784
   75POPE  C216 7793   2.651   0.096   3.918
   75POPE  H16R 7794   2.757   0.096   3.952
   75POPE  H16S 7795   2.618  -0.010   3.912
   75POPE  C217 7796   2.567   0.170   4.023
   75POPE  H17R 7797   2.547   0.101   4.108
   75POPE  H17S 7798   2.468   0.198   3.981
   75POPE  C218 7799   2.637   0.293   4.082
   75POPE  H18R 7800   2.740   0.269   4.114
   75POPE  H18S 7801   2.581   0.333   4.169
   75POPE  H18T 7802   2.641   0.374   4.005
   75POPE   C33 7803   2.347  -0.219   2.703
   75POPE   H3X 7804   2.307  -0.316   2.666
   75POPE   H3Y 7805   2.272  -0.175   2.773
   75POPE   C34 7806   2.474  -0.245   2.785
   75POPE   H4X 7807   2.529  -0.149   2.797
   75POPE   H4Y 7808   2.540  -0.315   2.729
   75POPE   C35 7809   2.447  -0.301   2.925
   75POPE   H5X 7810   2.545  -0.324   2.972
   75POPE   H5Y 7811   2.391  -0.397   2.918
   75POPE   C36 7812   2.373  -0.205   3.019
   75POPE   H6X 7813   2.269  -0.189   2.984
   75POPE   H6Y 7814   2.425  -0.106   3.018
   75POPE   C37 7815   2.370  -0.258   3.163
   75POPE   H7X 7816   2.475  -0.276   3.193
   75POPE   H7Y 7817   2.318  -0.357   3.165
   75POPE   C38 7818   2.300  -0.164   3.263
   75POPE   H8X 7819   2.191  -0.163   3.240
   75POPE   H8Y 7820   2.336  -0.060   3.248
   75POPE   C39 7821   2.321  -0.205   3.409
   75POPE   H9X 7822   2.284  -0.309   3.421
   75POPE   H9Y 7823   2.258  -0.140   3.475
   75POPE  C310 7824   2.467  -0.195   3.457
   75POPE  H10X 7825   2.491  -0.088   3.471
   75POPE  H10Y 7826   2.536  -0.237   3.380
   75POPE  C311 7827   2.498  -0.267   3.588
   75POPE  H11X 7828   2.608  -0.264   3.605
   75POPE  H11Y 7829   2.467  -0.373   3.581
   75POPE  C312 7830   2.429  -0.200   3.706
   75POPE  H12X 7831   2.319  -0.207   3.693
   75POPE  H12Y 7832   2.455  -0.092   3.709
   75POPE  C313 7833   2.469  -0.266   3.837
   75POPE  H13X 7834   2.577  -0.248   3.857
   75POPE  H13Y 7835   2.454  -0.376   3.827
   75POPE  C314 7836   2.385  -0.215   3.953
   75POPE  H14X 7837   2.278  -0.213   3.924
   75POPE  H14Y 7838   2.415  -0.111   3.978
   75POPE  C315 7839   2.401  -0.306   4.074
   75POPE  H15X 7840   2.508  -0.331   4.088
   75POPE  H15Y 7841   2.347  -0.401   4.051
   75POPE  C316 7842   2.346  -0.243   4.200
   75POPE  H16X 7843   2.399  -0.149   4.225
   75POPE  H16Y 7844   2.354  -0.312   4.287
   75POPE  H16Z 7845   2.239  -0.218   4.183
   76POPE     N 7846   1.278   7.134   2.555
   76POPE   HN1 7847   1.194   7.091   2.512
   76POPE   HN2 7848   1.325   7.058   2.608
   76POPE   HN3 7849   1.239   7.206   2.620
   76POPE   C12 7850   1.361   7.190   2.443
   76POPE  H12A 7851   1.437   7.114   2.417
   76POPE  H12B 7852   1.412   7.282   2.478
   76POPE   C11 7853   1.272   7.218   2.320
   76POPE  H11A 7854   1.337   7.244   2.234
   76POPE  H11B 7855   1.210   7.308   2.338
   76POPE     P 7856   1.236   6.989   2.200
   76POPE   O13 7857   1.376   6.961   2.238
   76POPE   O14 7858   1.214   7.030   2.059
   76POPE   O11 7859   1.145   6.867   2.243
   76POPE   O12 7860   1.187   7.107   2.294
   76POPE    C1 7861   1.004   6.860   2.221
   76POPE    HA 7862   0.977   6.753   2.206
   76POPE    HB 7863   0.972   6.914   2.130
   76POPE    C2 7864   0.914   6.908   2.341
   76POPE    HS 7865   0.926   7.019   2.348
   76POPE   O21 7866   0.951   6.840   2.462
   76POPE   C21 7867   0.995   6.915   2.560
   76POPE   O22 7868   1.041   7.028   2.550
   76POPE   C22 7869   0.985   6.841   2.693
   76POPE   H2R 7870   1.069   6.768   2.696
   76POPE   H2S 7871   0.889   6.785   2.694
   76POPE    C3 7872   0.763   6.880   2.313
   76POPE    HX 7873   0.748   6.772   2.292
   76POPE    HY 7874   0.736   6.934   2.219
   76POPE   O31 7875   0.675   6.928   2.417
   76POPE   C31 7876   0.648   6.843   2.515
   76POPE   O32 7877   0.695   6.731   2.525
   76POPE   C32 7878   0.553   6.906   2.617
   76POPE   H2X 7879   0.453   6.858   2.604
   76POPE   H2Y 7880   0.544   7.014   2.593
   76POPE   C23 7881   0.994   6.932   2.818
   76POPE   H3R 7882   0.913   7.008   2.818
   76POPE   H3S 7883   1.091   6.987   2.817
   76POPE   C24 7884   0.986   6.850   2.947
   76POPE   H4R 7885   1.053   6.762   2.937
   76POPE   H4S 7886   0.883   6.812   2.961
   76POPE   C25 7887   1.030   6.928   3.072
   76POPE   H5R 7888   0.958   7.009   3.095
   76POPE   H5S 7889   1.129   6.975   3.052
   76POPE   C26 7890   1.045   6.836   3.194
   76POPE   H6R 7891   1.097   6.743   3.162
   76POPE   H6S 7892   0.945   6.805   3.231
   76POPE   C27 7893   1.125   6.900   3.308
   76POPE   H7R 7894   1.075   6.995   3.337
   76POPE   H7S 7895   1.226   6.926   3.271
   76POPE   C28 7896   1.136   6.809   3.432
   76POPE   H8R 7897   1.178   6.710   3.405
   76POPE   H8S 7898   1.034   6.787   3.469
   76POPE   C29 7899   1.222   6.872   3.539
   76POPE   H91 7900   1.329   6.849   3.536
   76POPE  C210 7901   1.175   6.955   3.634
   76POPE  H101 7902   1.244   6.996   3.710
   76POPE  C211 7903   1.031   6.997   3.649
   76POPE  H11R 7904   0.967   6.959   3.567
   76POPE  H11S 7905   1.026   7.108   3.640
   76POPE  C212 7906   0.969   6.948   3.781
   76POPE  H12R 7907   0.868   6.994   3.792
   76POPE  H12S 7908   1.030   6.981   3.868
   76POPE  C213 7909   0.950   6.796   3.784
   76POPE  H13R 7910   1.049   6.746   3.778
   76POPE  H13S 7911   0.893   6.768   3.693
   76POPE  C214 7912   0.876   6.747   3.909
   76POPE  H14R 7913   0.785   6.809   3.925
   76POPE  H14S 7914   0.943   6.762   3.997
   76POPE  C215 7915   0.835   6.600   3.899
   76POPE  H15R 7916   0.806   6.562   4.000
   76POPE  H15S 7917   0.925   6.544   3.866
   76POPE  C216 7918   0.719   6.574   3.801
   76POPE  H16R 7919   0.733   6.638   3.711
   76POPE  H16S 7920   0.622   6.603   3.848
   76POPE  C217 7921   0.715   6.429   3.752
   76POPE  H17R 7922   0.819   6.403   3.724
   76POPE  H17S 7923   0.654   6.421   3.660
   76POPE  C218 7924   0.665   6.327   3.854
   76POPE  H18R 7925   0.706   6.349   3.955
   76POPE  H18S 7926   0.694   6.224   3.826
   76POPE  H18T 7927   0.554   6.330   3.859
   76POPE   C33 7928   0.600   6.889   2.763
   76POPE   H3X 7929   0.710   6.904   2.771
   76POPE   H3Y 7930   0.578   6.787   2.800
   76POPE   C34 7931   0.532   6.980   2.866
   76POPE   H4X 7932   0.428   6.944   2.881
   76POPE   H4Y 7933   0.525   7.086   2.833
   76POPE   C35 7934   0.601   6.970   3.002
   76POPE   H5X 7935   0.681   7.046   3.010
   76POPE   H5Y 7936   0.648   6.870   3.010
   76POPE   C36 7937   0.501   6.984   3.117
   76POPE   H6X 7938   0.439   6.892   3.121
   76POPE   H6Y 7939   0.432   7.068   3.096
   76POPE   C37 7940   0.571   7.007   3.251
   76POPE   H7X 7941   0.492   7.006   3.329
   76POPE   H7Y 7942   0.617   7.108   3.249
   76POPE   C38 7943   0.681   6.906   3.284
   76POPE   H8X 7944   0.756   6.903   3.202
   76POPE   H8Y 7945   0.636   6.804   3.291
   76POPE   C39 7946   0.754   6.938   3.414
   76POPE   H9X 7947   0.824   7.022   3.395
   76POPE   H9Y 7948   0.815   6.849   3.444
   76POPE  C310 7949   0.663   6.977   3.531
   76POPE  H10X 7950   0.611   7.072   3.504
   76POPE  H10Y 7951   0.724   7.000   3.621
   76POPE  C311 7952   0.558   6.871   3.566
   76POPE  H11X 7953   0.605   6.796   3.633
   76POPE  H11Y 7954   0.525   6.817   3.475
   76POPE  C312 7955   0.432   6.930   3.632
   76POPE  H12X 7956   0.360   6.848   3.653
   76POPE  H12Y 7957   0.382   6.997   3.558
   76POPE  C313 7958   0.459   7.008   3.760
   76POPE  H13X 7959   0.363   7.052   3.797
   76POPE  H13Y 7960   0.527   7.093   3.737
   76POPE  C314 7961   0.521   6.923   3.872
   76POPE  H14X 7962   0.614   6.876   3.834
   76POPE  H14Y 7963   0.450   6.842   3.901
   76POPE  C315 7964   0.554   7.011   3.992
   76POPE  H15X 7965   0.463   7.068   4.019
   76POPE  H15Y 7966   0.631   7.084   3.958
   76POPE  C316 7967   0.605   6.937   4.116
   76POPE  H16X 7968   0.610   7.006   4.203
   76POPE  H16Y 7969   0.707   6.895   4.100
   76POPE  H16Z 7970   0.536   6.853   4.143
   77POPE     N 7971   0.398   1.432   2.590
   77POPE   HN1 7972   0.352   1.347   2.551
   77POPE   HN2 7973   0.493   1.405   2.623
   77POPE   HN3 7974   0.339   1.465   2.669
   77POPE   C12 7975   0.406   1.534   2.480
   77POPE  H12A 7976   0.420   1.634   2.526
   77POPE  H12B 7977   0.308   1.533   2.426
   77POPE   C11 7978   0.522   1.501   2.384
   77POPE  H11A 7979   0.617   1.531   2.432
   77POPE  H11B 7980   0.511   1.564   2.293
   77POPE     P 7981   0.428   1.294   2.252
   77POPE   O13 7982   0.492   1.175   2.193
   77POPE   O14 7983   0.379   1.397   2.159
   77POPE   O11 7984   0.312   1.255   2.352
   77POPE   O12 7985   0.531   1.362   2.351
   77POPE    C1 7986   0.319   1.140   2.437
   77POPE    HA 7987   0.414   1.141   2.494
   77POPE    HB 7988   0.317   1.046   2.377
   77POPE    C2 7989   0.200   1.136   2.537
   77POPE    HS 7990   0.112   1.102   2.480
   77POPE   O21 7991   0.183   1.269   2.592
   77POPE   C21 7992   0.064   1.324   2.577
   77POPE   O22 7993  -0.030   1.278   2.515
   77POPE   C22 7994   0.065   1.461   2.644
   77POPE   H2R 7995  -0.031   1.509   2.615
   77POPE   H2S 7996   0.147   1.524   2.603
   77POPE    C3 7997   0.219   1.035   2.655
   77POPE    HX 7998   0.248   0.936   2.615
   77POPE    HY 7999   0.121   1.022   2.705
   77POPE   O31 8000   0.312   1.086   2.753
   77POPE   C31 8001   0.438   1.048   2.740
   77POPE   O32 8002   0.481   0.968   2.659
   77POPE   C32 8003   0.525   1.141   2.824
   77POPE   H2X 8004   0.538   1.096   2.925
   77POPE   H2Y 8005   0.473   1.239   2.835
   77POPE   C23 8006   0.068   1.456   2.798
   77POPE   H3R 8007  -0.012   1.386   2.830
   77POPE   H3S 8008   0.041   1.557   2.836
   77POPE   C24 8009   0.198   1.413   2.867
   77POPE   H4R 8010   0.281   1.484   2.845
   77POPE   H4S 8011   0.226   1.311   2.833
   77POPE   C25 8012   0.175   1.410   3.018
   77POPE   H5R 8013   0.075   1.364   3.037
   77POPE   H5S 8014   0.173   1.513   3.059
   77POPE   C26 8015   0.273   1.323   3.097
   77POPE   H6R 8016   0.378   1.359   3.081
   77POPE   H6S 8017   0.266   1.218   3.061
   77POPE   C27 8018   0.238   1.327   3.246
   77POPE   H7R 8019   0.129   1.312   3.259
   77POPE   H7S 8020   0.260   1.430   3.284
   77POPE   C28 8021   0.319   1.225   3.327
   77POPE   H8R 8022   0.366   1.276   3.414
   77POPE   H8S 8023   0.403   1.189   3.265
   77POPE   C29 8024   0.235   1.109   3.374
   77POPE   H91 8025   0.179   1.056   3.295
   77POPE  C210 8026   0.224   1.067   3.501
   77POPE  H101 8027   0.165   0.977   3.521
   77POPE  C211 8028   0.291   1.124   3.623
   77POPE  H11R 8029   0.323   1.230   3.611
   77POPE  H11S 8030   0.383   1.066   3.645
   77POPE  C212 8031   0.194   1.112   3.742
   77POPE  H12R 8032   0.254   1.111   3.836
   77POPE  H12S 8033   0.142   1.014   3.740
   77POPE  C213 8034   0.088   1.223   3.746
   77POPE  H13R 8035   0.013   1.198   3.824
   77POPE  H13S 8036   0.035   1.224   3.649
   77POPE  C214 8037   0.140   1.365   3.775
   77POPE  H14R 8038   0.059   1.435   3.747
   77POPE  H14S 8039   0.226   1.388   3.708
   77POPE  C215 8040   0.176   1.392   3.922
   77POPE  H15R 8041   0.095   1.353   3.987
   77POPE  H15S 8042   0.178   1.502   3.935
   77POPE  C216 8043   0.312   1.337   3.969
   77POPE  H16R 8044   0.389   1.359   3.892
   77POPE  H16S 8045   0.307   1.227   3.983
   77POPE  C217 8046   0.356   1.396   4.103
   77POPE  H17R 8047   0.360   1.506   4.096
   77POPE  H17S 8048   0.458   1.359   4.125
   77POPE  C218 8049   0.264   1.355   4.218
   77POPE  H18R 8050   0.294   1.403   4.314
   77POPE  H18S 8051   0.267   1.245   4.232
   77POPE  H18T 8052   0.159   1.386   4.198
   77POPE   C33 8053   0.660   1.159   2.752
   77POPE   H3X 8054   0.644   1.175   2.643
   77POPE   H3Y 8055   0.716   1.064   2.761
   77POPE   C34 8056   0.746   1.276   2.802
   77POPE   H4X 8057   0.682   1.367   2.804
   77POPE   H4Y 8058   0.829   1.295   2.731
   77POPE   C35 8059   0.806   1.254   2.941
   77POPE   H5X 8060   0.893   1.185   2.937
   77POPE   H5Y 8061   0.730   1.203   3.005
   77POPE   C36 8062   0.849   1.386   3.006
   77POPE   H6X 8063   0.805   1.472   2.952
   77POPE   H6Y 8064   0.960   1.396   2.998
   77POPE   C37 8065   0.805   1.397   3.153
   77POPE   H7X 8066   0.850   1.489   3.197
   77POPE   H7Y 8067   0.842   1.310   3.211
   77POPE   C38 8068   0.653   1.406   3.163
   77POPE   H8X 8069   0.605   1.316   3.118
   77POPE   H8Y 8070   0.617   1.494   3.106
   77POPE   C39 8071   0.602   1.417   3.306
   77POPE   H9X 8072   0.637   1.332   3.369
   77POPE   H9Y 8073   0.491   1.411   3.299
   77POPE  C310 8074   0.636   1.550   3.372
   77POPE  H10X 8075   0.612   1.631   3.300
   77POPE  H10Y 8076   0.745   1.556   3.394
   77POPE  C311 8077   0.556   1.575   3.500
   77POPE  H11X 8078   0.583   1.676   3.536
   77POPE  H11Y 8079   0.588   1.502   3.578
   77POPE  C312 8080   0.403   1.566   3.483
   77POPE  H12X 8081   0.373   1.460   3.490
   77POPE  H12Y 8082   0.374   1.604   3.383
   77POPE  C313 8083   0.321   1.642   3.589
   77POPE  H13X 8084   0.216   1.606   3.590
   77POPE  H13Y 8085   0.316   1.749   3.559
   77POPE  C314 8086   0.381   1.634   3.729
   77POPE  H14X 8087   0.491   1.643   3.726
   77POPE  H14Y 8088   0.360   1.535   3.776
   77POPE  C315 8089   0.332   1.747   3.817
   77POPE  H15X 8090   0.229   1.727   3.853
   77POPE  H15Y 8091   0.329   1.840   3.757
   77POPE  C316 8092   0.427   1.770   3.934
   77POPE  H16X 8093   0.431   1.879   3.957
   77POPE  H16Y 8094   0.531   1.739   3.909
   77POPE  H16Z 8095   0.394   1.714   4.024
   78POPE     N 8096   7.438   1.399   2.247
   78POPE   HN1 8097   7.449   1.469   2.172
   78POPE   HN2 8098   7.344   1.356   2.240
   78POPE   HN3 8099   7.440   1.442   2.342
   78POPE   C12 8100   7.536   1.285   2.236
   78POPE  H12A 8101   7.631   1.317   2.283
   78POPE  H12B 8102   7.554   1.265   2.128
   78POPE   C11 8103   7.478   1.159   2.302
   78POPE  H11A 8104   7.449   1.180   2.407
   78POPE  H11B 8105   7.559   1.083   2.308
   78POPE     P 8106   7.220   1.119   2.273
   78POPE   O13 8107   7.211   1.059   2.405
   78POPE   O14 8108   7.129   1.076   2.164
   78POPE   O11 8109   7.212   1.277   2.278
   78POPE   O12 8110   7.371   1.106   2.222
   78POPE    C1 8111   7.090   1.348   2.303
   78POPE    HA 8112   6.999   1.288   2.279
   78POPE    HB 8113   7.088   1.437   2.237
   78POPE    C2 8114   7.079   1.403   2.448
   78POPE    HS 8115   7.010   1.490   2.445
   78POPE   O21 8116   7.210   1.446   2.492
   78POPE   C21 8117   7.211   1.482   2.620
   78POPE   O22 8118   7.115   1.521   2.683
   78POPE   C22 8119   7.352   1.461   2.676
   78POPE   H2R 8120   7.403   1.559   2.669
   78POPE   H2S 8121   7.406   1.390   2.610
   78POPE    C3 8122   7.012   1.298   2.544
   78POPE    HX 8123   6.943   1.233   2.487
   78POPE    HY 8124   6.951   1.355   2.618
   78POPE   O31 8125   7.114   1.220   2.609
   78POPE   C31 8126   7.078   1.162   2.721
   78POPE   O32 8127   6.966   1.166   2.769
   78POPE   C32 8128   7.200   1.098   2.786
   78POPE   H2X 8129   7.222   1.156   2.878
   78POPE   H2Y 8130   7.285   1.106   2.716
   78POPE   C23 8131   7.355   1.407   2.822
   78POPE   H3R 8132   7.392   1.303   2.818
   78POPE   H3S 8133   7.254   1.405   2.867
   78POPE   C24 8134   7.447   1.489   2.914
   78POPE   H4R 8135   7.389   1.569   2.965
   78POPE   H4S 8136   7.524   1.538   2.851
   78POPE   C25 8137   7.519   1.407   3.021
   78POPE   H5R 8138   7.601   1.469   3.063
   78POPE   H5S 8139   7.564   1.318   2.972
   78POPE   C26 8140   7.431   1.361   3.137
   78POPE   H6R 8141   7.330   1.333   3.101
   78POPE   H6S 8142   7.419   1.446   3.208
   78POPE   C27 8143   7.495   1.241   3.207
   78POPE   H7R 8144   7.452   1.232   3.309
   78POPE   H7S 8145   7.604   1.258   3.217
   78POPE   C28 8146   7.468   1.110   3.129
   78POPE   H8R 8147   7.456   1.138   3.021
   78POPE   H8S 8148   7.367   1.076   3.160
   78POPE   C29 8149   7.566   0.995   3.135
   78POPE   H91 8150   7.593   0.954   3.037
   78POPE  C210 8151   7.620   0.937   3.244
   78POPE  H101 8152   7.687   0.852   3.229
   78POPE  C211 8153   7.595   0.974   3.388
   78POPE  H11R 8154   7.557   1.078   3.399
   78POPE  H11S 8155   7.691   0.970   3.444
   78POPE  C212 8156   7.496   0.881   3.459
   78POPE  H12R 8157   7.539   0.779   3.469
   78POPE  H12S 8158   7.404   0.875   3.397
   78POPE  C213 8159   7.453   0.934   3.596
   78POPE  H13R 8160   7.372   0.870   3.637
   78POPE  H13S 8161   7.410   1.035   3.577
   78POPE  C214 8162   7.565   0.949   3.700
   78POPE  H14R 8163   7.642   1.016   3.658
   78POPE  H14S 8164   7.612   0.850   3.717
   78POPE  C215 8165   7.515   1.007   3.833
   78POPE  H15R 8166   7.602   1.021   3.901
   78POPE  H15S 8167   7.447   0.933   3.880
   78POPE  C216 8168   7.439   1.140   3.819
   78POPE  H16R 8169   7.342   1.117   3.768
   78POPE  H16S 8170   7.495   1.210   3.753
   78POPE  C217 8171   7.405   1.210   3.951
   78POPE  H17R 8172   7.384   1.133   4.029
   78POPE  H17S 8173   7.312   1.268   3.937
   78POPE  C218 8174   7.514   1.306   3.999
   78POPE  H18R 8175   7.531   1.386   3.924
   78POPE  H18S 8176   7.609   1.251   4.015
   78POPE  H18T 8177   7.485   1.353   4.096
   78POPE   C33 8178   7.177   0.949   2.822
   78POPE   H3X 8179   7.264   0.892   2.783
   78POPE   H3Y 8180   7.086   0.908   2.772
   78POPE   C34 8181   7.169   0.924   2.973
   78POPE   H4X 8182   7.262   0.965   3.019
   78POPE   H4Y 8183   7.168   0.813   2.987
   78POPE   C35 8184   7.046   0.980   3.043
   78POPE   H5X 8185   6.972   0.898   3.058
   78POPE   H5Y 8186   6.998   1.054   2.976
   78POPE   C36 8187   7.071   1.054   3.176
   78POPE   H6X 8188   6.972   1.089   3.211
   78POPE   H6Y 8189   7.132   1.145   3.157
   78POPE   C37 8190   7.136   0.971   3.287
   78POPE   H7X 8191   7.237   1.011   3.312
   78POPE   H7Y 8192   7.150   0.866   3.251
   78POPE   C38 8193   7.051   0.969   3.415
   78POPE   H8X 8194   7.092   0.895   3.487
   78POPE   H8Y 8195   6.949   0.937   3.387
   78POPE   C39 8196   7.036   1.106   3.482
   78POPE   H9X 8197   6.932   1.115   3.521
   78POPE   H9Y 8198   7.049   1.187   3.408
   78POPE  C310 8199   7.133   1.125   3.598
   78POPE  H10X 8200   7.191   1.219   3.581
   78POPE  H10Y 8201   7.207   1.042   3.600
   78POPE  C311 8202   7.065   1.132   3.735
   78POPE  H11X 8203   6.964   1.178   3.726
   78POPE  H11Y 8204   7.127   1.199   3.799
   78POPE  C312 8205   7.053   0.996   3.805
   78POPE  H12X 8206   7.156   0.956   3.821
   78POPE  H12Y 8207   6.999   0.924   3.739
   78POPE  C313 8208   6.981   1.003   3.941
   78POPE  H13X 8209   7.001   0.910   3.998
   78POPE  H13Y 8210   6.871   1.007   3.925
   78POPE  C314 8211   7.020   1.127   4.023
   78POPE  H14X 8212   6.973   1.215   3.975
   78POPE  H14Y 8213   7.130   1.140   4.022
   78POPE  C315 8214   6.972   1.122   4.168
   78POPE  H15X 8215   7.030   1.047   4.226
   78POPE  H15Y 8216   6.866   1.088   4.167
   78POPE  C316 8217   6.980   1.259   4.236
   78POPE  H16X 8218   6.952   1.253   4.343
   78POPE  H16Y 8219   6.911   1.330   4.186
   78POPE  H16Z 8220   7.084   1.300   4.229
   79POPE     N 8221   1.305   0.289   2.321
   79POPE   HN1 8222   1.249   0.370   2.288
   79POPE   HN2 8223   1.401   0.322   2.337
   79POPE   HN3 8224   1.312   0.221   2.242
   79POPE   C12 8225   1.253   0.215   2.441
   79POPE  H12A 8226   1.144   0.234   2.450
   79POPE  H12B 8227   1.305   0.257   2.531
   79POPE   C11 8228   1.279   0.063   2.430
   79POPE  H11A 8229   1.202   0.018   2.363
   79POPE  H11B 8230   1.262   0.019   2.530
   79POPE     P 8231   1.447  -0.004   2.239
   79POPE   O13 8232   1.364   0.085   2.156
   79POPE   O14 8233   1.435  -0.151   2.222
   79POPE   O11 8234   1.599   0.036   2.224
   79POPE   O12 8235   1.412   0.033   2.389
   79POPE    C1 8236   1.666   0.119   2.319
   79POPE    HA 8237   1.597   0.188   2.372
   79POPE    HB 8238   1.738   0.184   2.265
   79POPE    C2 8239   1.744   0.038   2.425
   79POPE    HS 8240   1.817  -0.029   2.374
   79POPE   O21 8241   1.653  -0.033   2.507
   79POPE   C21 8242   1.637  -0.161   2.497
   79POPE   O22 8243   1.694  -0.239   2.421
   79POPE   C22 8244   1.532  -0.202   2.600
   79POPE   H2R 8245   1.565  -0.300   2.641
   79POPE   H2S 8246   1.435  -0.213   2.548
   79POPE    C3 8247   1.822   0.134   2.518
   79POPE    HX 8248   1.880   0.202   2.452
   79POPE    HY 8249   1.893   0.075   2.579
   79POPE   O31 8250   1.731   0.215   2.595
   79POPE   C31 8251   1.725   0.187   2.726
   79POPE   O32 8252   1.799   0.111   2.786
   79POPE   C32 8253   1.596   0.248   2.781
   79POPE   H2X 8254   1.518   0.169   2.781
   79POPE   H2Y 8255   1.564   0.327   2.710
   79POPE   C23 8256   1.518  -0.100   2.716
   79POPE   H3R 8257   1.450  -0.018   2.685
   79POPE   H3S 8258   1.617  -0.056   2.739
   79POPE   C24 8259   1.474  -0.162   2.849
   79POPE   H4R 8260   1.556  -0.230   2.879
   79POPE   H4S 8261   1.380  -0.219   2.838
   79POPE   C25 8262   1.462  -0.061   2.964
   79POPE   H5R 8263   1.552   0.003   2.968
   79POPE   H5S 8264   1.458  -0.118   3.060
   79POPE   C26 8265   1.335   0.023   2.955
   79POPE   H6R 8266   1.247  -0.044   2.943
   79POPE   H6S 8267   1.339   0.088   2.865
   79POPE   C27 8268   1.312   0.110   3.079
   79POPE   H7R 8269   1.402   0.169   3.104
   79POPE   H7S 8270   1.294   0.042   3.165
   79POPE   C28 8271   1.193   0.206   3.055
   79POPE   H8R 8272   1.123   0.152   2.987
   79POPE   H8S 8273   1.235   0.289   2.994
   79POPE   C29 8274   1.114   0.265   3.169
   79POPE   H91 8275   1.087   0.370   3.155
   79POPE  C210 8276   1.068   0.206   3.281
   79POPE  H101 8277   1.012   0.268   3.352
   79POPE  C211 8278   1.084   0.062   3.323
   79POPE  H11R 8279   1.107  -0.004   3.237
   79POPE  H11S 8280   0.989   0.025   3.366
   79POPE  C212 8281   1.194   0.050   3.430
   79POPE  H12R 8282   1.286   0.105   3.397
   79POPE  H12S 8283   1.222  -0.057   3.442
   79POPE  C213 8284   1.148   0.104   3.566
   79POPE  H13R 8285   1.068   0.037   3.605
   79POPE  H13S 8286   1.103   0.205   3.553
   79POPE  C214 8287   1.260   0.117   3.669
   79POPE  H14R 8288   1.326   0.200   3.637
   79POPE  H14S 8289   1.321   0.024   3.674
   79POPE  C215 8290   1.201   0.147   3.807
   79POPE  H15R 8291   1.171   0.054   3.859
   79POPE  H15S 8292   1.107   0.204   3.787
   79POPE  C216 8293   1.290   0.234   3.896
   79POPE  H16R 8294   1.346   0.307   3.834
   79POPE  H16S 8295   1.364   0.166   3.945
   79POPE  C217 8296   1.212   0.312   4.002
   79POPE  H17R 8297   1.151   0.243   4.064
   79POPE  H17S 8298   1.141   0.380   3.950
   79POPE  C218 8299   1.299   0.398   4.092
   79POPE  H18R 8300   1.368   0.460   4.030
   79POPE  H18S 8301   1.360   0.335   4.161
   79POPE  H18T 8302   1.236   0.467   4.153
   79POPE   C33 8303   1.609   0.308   2.922
   79POPE   H3X 8304   1.711   0.345   2.942
   79POPE   H3Y 8305   1.588   0.230   2.998
   79POPE   C34 8306   1.511   0.424   2.936
   79POPE   H4X 8307   1.410   0.390   2.903
   79POPE   H4Y 8308   1.541   0.508   2.870
   79POPE   C35 8309   1.499   0.479   3.078
   79POPE   H5X 8310   1.472   0.397   3.148
   79POPE   H5Y 8311   1.415   0.552   3.078
   79POPE   C36 8312   1.622   0.557   3.125
   79POPE   H6X 8313   1.645   0.637   3.051
   79POPE   H6Y 8314   1.708   0.488   3.128
   79POPE   C37 8315   1.602   0.621   3.263
   79POPE   H7X 8316   1.522   0.698   3.258
   79POPE   H7Y 8317   1.695   0.673   3.293
   79POPE   C38 8318   1.566   0.519   3.372
   79POPE   H8X 8319   1.460   0.488   3.361
   79POPE   H8Y 8320   1.576   0.567   3.471
   79POPE   C39 8321   1.654   0.393   3.366
   79POPE   H9X 8322   1.761   0.424   3.360
   79POPE   H9Y 8323   1.632   0.334   3.275
   79POPE  C310 8324   1.636   0.302   3.487
   79POPE  H10X 8325   1.530   0.270   3.492
   79POPE  H10Y 8326   1.658   0.361   3.579
   79POPE  C311 8327   1.729   0.181   3.481
   79POPE  H11X 8328   1.828   0.214   3.443
   79POPE  H11Y 8329   1.689   0.106   3.410
   79POPE  C312 8330   1.750   0.117   3.619
   79POPE  H12X 8331   1.795   0.196   3.683
   79POPE  H12Y 8332   1.822   0.034   3.613
   79POPE  C313 8333   1.619   0.067   3.682
   79POPE  H13X 8334   1.590  -0.030   3.635
   79POPE  H13Y 8335   1.537   0.139   3.660
   79POPE  C314 8336   1.623   0.055   3.834
   79POPE  H14X 8337   1.700  -0.019   3.864
   79POPE  H14Y 8338   1.525   0.018   3.869
   79POPE  C315 8339   1.651   0.189   3.903
   79POPE  H15X 8340   1.590   0.269   3.856
   79POPE  H15Y 8341   1.757   0.216   3.889
   79POPE  C316 8342   1.621   0.185   4.052
   79POPE  H16X 8343   1.650   0.085   4.093
   79POPE  H16Y 8344   1.514   0.201   4.075
   79POPE  H16Z 8345   1.679   0.264   4.105
   80POPE     N 8346   6.649   7.138   2.193
   80POPE   HN1 8347   6.564   7.185   2.155
   80POPE   HN2 8348   6.632   7.036   2.191
   80POPE   HN3 8349   6.650   7.171   2.292
   80POPE   C12 8350   6.773   7.190   2.126
   80POPE  H12A 8351   6.766   7.165   2.018
   80POPE  H12B 8352   6.860   7.138   2.171
   80POPE   C11 8353   6.784   7.342   2.147
   80POPE  H11A 8354   6.703   7.394   2.092
   80POPE  H11B 8355   6.879   7.377   2.103
   80POPE     P 8356   6.658   7.434   2.359
   80POPE   O13 8357   6.561   7.322   2.366
   80POPE   O14 8358   6.618   7.550   2.277
   80POPE   O11 8359   6.713   7.473   2.502
   80POPE   O12 8360   6.785   7.372   2.287
   80POPE    C1 8361   6.852   7.461   2.534
   80POPE    HA 8362   6.874   7.524   2.623
   80POPE    HB 8363   6.916   7.500   2.452
   80POPE    C2 8364   6.894   7.314   2.568
   80POPE    HS 8365   6.832   7.245   2.506
   80POPE   O21 8366   6.878   7.290   2.708
   80POPE   C21 8367   6.765   7.234   2.743
   80POPE   O22 8368   6.671   7.209   2.669
   80POPE   C22 8369   6.777   7.187   2.888
   80POPE   H2R 8370   6.856   7.244   2.940
   80POPE   H2S 8371   6.809   7.081   2.882
   80POPE    C3 8372   7.041   7.283   2.529
   80POPE    HX 8373   7.049   7.294   2.418
   80POPE    HY 8374   7.063   7.177   2.552
   80POPE   O31 8375   7.135   7.373   2.589
   80POPE   C31 8376   7.189   7.335   2.705
   80POPE   O32 8377   7.160   7.236   2.769
   80POPE   C32 8378   7.302   7.431   2.739
   80POPE   H2X 8379   7.285   7.522   2.678
   80POPE   H2Y 8380   7.397   7.384   2.707
   80POPE   C23 8381   6.644   7.188   2.965
   80POPE   H3R 8382   6.629   7.091   3.017
   80POPE   H3S 8383   6.558   7.202   2.896
   80POPE   C24 8384   6.638   7.296   3.071
   80POPE   H4R 8385   6.708   7.274   3.155
   80POPE   H4S 8386   6.535   7.297   3.111
   80POPE   C25 8387   6.673   7.432   3.012
   80POPE   H5R 8388   6.647   7.433   2.904
   80POPE   H5S 8389   6.782   7.451   3.018
   80POPE   C26 8390   6.595   7.545   3.076
   80POPE   H6R 8391   6.494   7.541   3.029
   80POPE   H6S 8392   6.646   7.639   3.046
   80POPE   C27 8393   6.578   7.543   3.228
   80POPE   H7R 8394   6.540   7.444   3.263
   80POPE   H7S 8395   6.501   7.618   3.256
   80POPE   C28 8396   6.705   7.578   3.303
   80POPE   H8R 8397   6.786   7.509   3.269
   80POPE   H8S 8398   6.689   7.550   3.410
   80POPE   C29 8399   6.740   7.724   3.283
   80POPE   H91 8400   6.736   7.762   3.179
   80POPE  C210 8401   6.774   7.809   3.379
   80POPE  H101 8402   6.798   7.914   3.357
   80POPE  C211 8403   6.781   7.763   3.520
   80POPE  H11R 8404   6.839   7.834   3.583
   80POPE  H11S 8405   6.836   7.666   3.527
   80POPE  C212 8406   6.639   7.744   3.574
   80POPE  H12R 8407   6.569   7.705   3.496
   80POPE  H12S 8408   6.598   7.843   3.603
   80POPE  C213 8409   6.636   7.644   3.689
   80POPE  H13R 8410   6.737   7.601   3.704
   80POPE  H13S 8411   6.569   7.559   3.666
   80POPE  C214 8412   6.592   7.715   3.816
   80POPE  H14R 8413   6.481   7.714   3.824
   80POPE  H14S 8414   6.621   7.822   3.806
   80POPE  C215 8415   6.663   7.666   3.941
   80POPE  H15R 8416   6.634   7.736   4.022
   80POPE  H15S 8417   6.772   7.683   3.924
   80POPE  C216 8418   6.643   7.519   3.984
   80POPE  H16R 8419   6.711   7.455   3.924
   80POPE  H16S 8420   6.540   7.484   3.962
   80POPE  C217 8421   6.672   7.504   4.135
   80POPE  H17R 8422   6.574   7.504   4.189
   80POPE  H17S 8423   6.728   7.593   4.168
   80POPE  C218 8424   6.749   7.381   4.183
   80POPE  H18R 8425   6.679   7.296   4.196
   80POPE  H18S 8426   6.795   7.402   4.281
   80POPE  H18T 8427   6.828   7.348   4.112
   80POPE   C33 8428   7.306   7.480   2.886
   80POPE   H3X 8429   7.202   7.504   2.915
   80POPE   H3Y 8430   7.361   7.577   2.880
   80POPE   C34 8431   7.378   7.398   2.996
   80POPE   H4X 8432   7.478   7.366   2.958
   80POPE   H4Y 8433   7.320   7.306   3.019
   80POPE   C35 8434   7.398   7.484   3.124
   80POPE   H5X 8435   7.299   7.504   3.171
   80POPE   H5Y 8436   7.437   7.582   3.091
   80POPE   C36 8437   7.493   7.437   3.235
   80POPE   H6X 8438   7.500   7.520   3.309
   80POPE   H6Y 8439   7.594   7.421   3.192
   80POPE   C37 8440   7.455   7.311   3.313
   80POPE   H7X 8441   7.544   7.244   3.312
   80POPE   H7Y 8442   7.370   7.260   3.264
   80POPE   C38 8443   7.425   7.330   3.462
   80POPE   H8X 8444   7.342   7.403   3.472
   80POPE   H8Y 8445   7.514   7.368   3.516
   80POPE   C39 8446   7.380   7.195   3.520
   80POPE   H9X 8447   7.451   7.118   3.483
   80POPE   H9Y 8448   7.282   7.171   3.474
   80POPE  C310 8449   7.371   7.186   3.672
   80POPE  H10X 8450   7.457   7.236   3.720
   80POPE  H10Y 8451   7.379   7.078   3.697
   80POPE  C311 8452   7.239   7.238   3.732
   80POPE  H11X 8453   7.162   7.242   3.652
   80POPE  H11Y 8454   7.252   7.342   3.766
   80POPE  C312 8455   7.187   7.151   3.847
   80POPE  H12X 8456   7.237   7.051   3.847
   80POPE  H12Y 8457   7.078   7.133   3.832
   80POPE  C313 8458   7.206   7.215   3.985
   80POPE  H13X 8459   7.173   7.146   4.065
   80POPE  H13Y 8460   7.139   7.304   3.989
   80POPE  C314 8461   7.349   7.262   4.014
   80POPE  H14X 8462   7.392   7.318   3.928
   80POPE  H14Y 8463   7.413   7.173   4.031
   80POPE  C315 8464   7.355   7.355   4.135
   80POPE  H15X 8465   7.459   7.354   4.174
   80POPE  H15Y 8466   7.287   7.316   4.213
   80POPE  C316 8467   7.315   7.500   4.104
   80POPE  H16X 8468   7.206   7.514   4.117
   80POPE  H16Y 8469   7.346   7.530   4.002
   80POPE  H16Z 8470   7.362   7.571   4.176
   81POPS     N 8471   3.800   3.228   6.293
   81POPS   HN1 8472   3.834   3.237   6.195
   81POPS   HN2 8473   3.869   3.184   6.357
   81POPS   HN3 8474   3.711   3.173   6.295
   81POPS   C12 8475   3.768   3.367   6.338
   81POPS  H12A 8476   3.861   3.420   6.346
   81POPS   C13 8477   3.695   3.375   6.474
   81POPS  O13A 8478   3.662   3.269   6.532
   81POPS  O13B 8479   3.676   3.488   6.525
   81POPS   C11 8480   3.684   3.432   6.225
   81POPS  H11A 8481   3.675   3.541   6.246
   81POPS  H11B 8482   3.582   3.389   6.223
   81POPS     P 8483   3.683   3.464   5.966
   81POPS   O13 8484   3.791   3.493   5.870
   81POPS   O14 8485   3.590   3.573   6.004
   81POPS   O12 8486   3.751   3.411   6.100
   81POPS   O11 8487   3.599   3.339   5.920
   81POPS    C1 8488   3.613   3.206   5.968
   81POPS    HA 8489   3.515   3.175   6.012
   81POPS    HB 8490   3.691   3.195   6.046
   81POPS    C2 8491   3.649   3.104   5.857
   81POPS    HS 8492   3.627   3.004   5.901
   81POPS   O21 8493   3.789   3.116   5.827
   81POPS   C21 8494   3.832   3.015   5.753
   81POPS   O22 8495   3.785   2.902   5.757
   81POPS   C22 8496   3.951   3.062   5.671
   81POPS   H2R 8497   4.034   3.082   5.743
   81POPS   H2S 8498   3.923   3.156   5.620
   81POPS    C3 8499   3.563   3.118   5.727
   81POPS    HX 8500   3.457   3.127   5.760
   81POPS    HY 8501   3.575   3.026   5.666
   81POPS   O31 8502   3.602   3.229   5.646
   81POPS   C31 8503   3.514   3.257   5.551
   81POPS   O32 8504   3.410   3.196   5.532
   81POPS   C32 8505   3.565   3.373   5.468
   81POPS   H2X 8506   3.585   3.335   5.365
   81POPS   H2Y 8507   3.660   3.408   5.513
   81POPS   C23 8508   3.999   2.959   5.568
   81POPS   H3R 8509   3.975   2.856   5.603
   81POPS   H3S 8510   4.110   2.964   5.563
   81POPS   C24 8511   3.944   2.984   5.427
   81POPS   H4R 8512   3.978   2.903   5.359
   81POPS   H4S 8513   3.989   3.077   5.385
   81POPS   C25 8514   3.792   2.999   5.416
   81POPS   H5R 8515   3.758   3.087   5.475
   81POPS   H5S 8516   3.741   2.909   5.457
   81POPS   C26 8517   3.752   3.020   5.270
   81POPS   H6R 8518   3.800   2.943   5.208
   81POPS   H6S 8519   3.791   3.119   5.237
   81POPS   C27 8520   3.601   3.013   5.247
   81POPS   H7R 8521   3.548   3.089   5.309
   81POPS   H7S 8522   3.565   2.913   5.280
   81POPS   C28 8523   3.564   3.031   5.098
   81POPS   H8R 8524   3.455   3.013   5.086
   81POPS   H8S 8525   3.616   2.950   5.043
   81POPS   C29 8526   3.602   3.167   5.046
   81POPS   H91 8527   3.533   3.248   5.076
   81POPS  C210 8528   3.709   3.197   4.970
   81POPS  H101 8529   3.722   3.302   4.939
   81POPS  C211 8530   3.815   3.103   4.919
   81POPS  H11R 8531   3.814   3.104   4.808
   81POPS  H11S 8532   3.795   2.998   4.949
   81POPS  C212 8533   3.959   3.135   4.966
   81POPS  H12R 8534   4.027   3.061   4.919
   81POPS  H12S 8535   3.966   3.120   5.076
   81POPS  C213 8536   4.010   3.276   4.932
   81POPS  H13R 8537   4.120   3.280   4.950
   81POPS  H13S 8538   3.963   3.348   5.003
   81POPS  C214 8539   3.981   3.325   4.789
   81POPS  H14R 8540   4.019   3.428   4.778
   81POPS  H14S 8541   3.871   3.329   4.775
   81POPS  C215 8542   4.039   3.238   4.676
   81POPS  H15R 8543   4.027   3.130   4.702
   81POPS  H15S 8544   4.147   3.258   4.666
   81POPS  C216 8545   3.967   3.262   4.542
   81POPS  H16R 8546   3.861   3.230   4.553
   81POPS  H16S 8547   4.013   3.199   4.463
   81POPS  C217 8548   3.968   3.408   4.496
   81POPS  H17R 8549   4.073   3.439   4.478
   81POPS  H17S 8550   3.929   3.473   4.578
   81POPS  C218 8551   3.884   3.434   4.371
   81POPS  H18R 8552   3.923   3.374   4.286
   81POPS  H18S 8553   3.887   3.541   4.343
   81POPS  H18T 8554   3.778   3.405   4.389
   81POPS   C33 8555   3.463   3.488   5.464
   81POPS   H3X 8556   3.417   3.501   5.565
   81POPS   H3Y 8557   3.381   3.465   5.393
   81POPS   C34 8558   3.530   3.621   5.428
   81POPS   H4X 8559   3.605   3.648   5.506
   81POPS   H4Y 8560   3.451   3.700   5.430
   81POPS   C35 8561   3.597   3.624   5.290
   81POPS   H5X 8562   3.611   3.733   5.269
   81POPS   H5Y 8563   3.529   3.584   5.212
   81POPS   C36 8564   3.736   3.559   5.280
   81POPS   H6X 8565   3.726   3.461   5.228
   81POPS   H6Y 8566   3.774   3.539   5.382
   81POPS   C37 8567   3.844   3.643   5.209
   81POPS   H7X 8568   3.932   3.578   5.193
   81POPS   H7Y 8569   3.873   3.726   5.278
   81POPS   C38 8570   3.807   3.705   5.074
   81POPS   H8X 8571   3.884   3.780   5.045
   81POPS   H8Y 8572   3.711   3.759   5.083
   81POPS   C39 8573   3.793   3.604   4.960
   81POPS   H9X 8574   3.757   3.507   5.001
   81POPS   H9Y 8575   3.892   3.586   4.913
   81POPS  C310 8576   3.692   3.654   4.857
   81POPS  H10X 8577   3.717   3.758   4.827
   81POPS  H10Y 8578   3.593   3.657   4.906
   81POPS  C311 8579   3.684   3.566   4.732
   81POPS  H11X 8580   3.688   3.460   4.763
   81POPS  H11Y 8581   3.771   3.587   4.666
   81POPS  C312 8582   3.554   3.590   4.656
   81POPS  H12X 8583   3.545   3.696   4.624
   81POPS  H12Y 8584   3.470   3.568   4.726
   81POPS  C313 8585   3.540   3.497   4.535
   81POPS  H13X 8586   3.586   3.399   4.562
   81POPS  H13Y 8587   3.597   3.538   4.449
   81POPS  C314 8588   3.394   3.475   4.496
   81POPS  H14X 8589   3.346   3.572   4.473
   81POPS  H14Y 8590   3.341   3.431   4.584
   81POPS  C315 8591   3.375   3.380   4.377
   81POPS  H15X 8592   3.410   3.431   4.285
   81POPS  H15Y 8593   3.267   3.360   4.366
   81POPS  C316 8594   3.450   3.248   4.390
   81POPS  H16X 8595   3.560   3.264   4.383
   81POPS  H16Y 8596   3.419   3.176   4.310
   81POPS  H16Z 8597   3.430   3.202   4.489
   82POPS     N 8598   4.783   2.174   6.440
   82POPS   HN1 8599   4.883   2.144   6.441
   82POPS   HN2 8600   4.749   2.192   6.537
   82POPS   HN3 8601   4.724   2.100   6.398
   82POPS   C12 8602   4.765   2.299   6.361
   82POPS  H12A 8603   4.822   2.379   6.406
   82POPS   C13 8604   4.615   2.341   6.361
   82POPS  O13A 8605   4.529   2.256   6.397
   82POPS  O13B 8606   4.584   2.460   6.334
   82POPS   C11 8607   4.821   2.270   6.218
   82POPS  H11A 8608   4.751   2.203   6.163
   82POPS  H11B 8609   4.917   2.216   6.231
   82POPS     P 8610   4.958   2.395   6.035
   82POPS   O13 8611   5.083   2.421   6.111
   82POPS   O14 8612   4.919   2.487   5.927
   82POPS   O12 8613   4.841   2.390   6.143
   82POPS   O11 8614   4.957   2.243   5.984
   82POPS    C1 8615   4.873   2.200   5.876
   82POPS    HA 8616   4.816   2.284   5.830
   82POPS    HB 8617   4.797   2.128   5.915
   82POPS    C2 8618   4.952   2.130   5.761
   82POPS    HS 8619   4.996   2.038   5.804
   82POPS   O21 8620   5.057   2.219   5.718
   82POPS   C21 8621   5.147   2.163   5.640
   82POPS   O22 8622   5.149   2.047   5.605
   82POPS   C22 8623   5.249   2.266   5.597
   82POPS   H2R 8624   5.328   2.210   5.542
   82POPS   H2S 8625   5.295   2.313   5.686
   82POPS    C3 8626   4.857   2.091   5.644
   82POPS    HX 8627   4.789   2.010   5.680
   82POPS    HY 8628   4.913   2.052   5.556
   82POPS   O31 8629   4.782   2.208   5.607
   82POPS   C31 8630   4.665   2.192   5.551
   82POPS   O32 8631   4.623   2.089   5.500
   82POPS   C32 8632   4.583   2.319   5.571
   82POPS   H2X 8633   4.522   2.304   5.662
   82POPS   H2Y 8634   4.515   2.329   5.484
   82POPS   C23 8635   5.185   2.372   5.506
   82POPS   H3R 8636   5.128   2.444   5.569
   82POPS   H3S 8637   5.110   2.326   5.437
   82POPS   C24 8638   5.287   2.448   5.420
   82POPS   H4R 8639   5.357   2.503   5.487
   82POPS   H4S 8640   5.233   2.523   5.360
   82POPS   C25 8641   5.364   2.360   5.320
   82POPS   H5R 8642   5.432   2.289   5.373
   82POPS   H5S 8643   5.428   2.426   5.259
   82POPS   C26 8644   5.270   2.281   5.228
   82POPS   H6R 8645   5.192   2.352   5.191
   82POPS   H6S 8646   5.218   2.201   5.285
   82POPS   C27 8647   5.342   2.220   5.107
   82POPS   H7R 8648   5.412   2.141   5.140
   82POPS   H7S 8649   5.403   2.301   5.062
   82POPS   C28 8650   5.245   2.168   5.000
   82POPS   H8R 8651   5.300   2.161   4.904
   82POPS   H8S 8652   5.165   2.243   4.985
   82POPS   C29 8653   5.184   2.037   5.039
   82POPS   H91 8654   5.140   2.034   5.140
   82POPS  C210 8655   5.179   1.926   4.963
   82POPS  H101 8656   5.128   1.837   5.003
   82POPS  C211 8657   5.232   1.910   4.823
   82POPS  H11R 8658   5.266   1.805   4.807
   82POPS  H11S 8659   5.321   1.975   4.805
   82POPS  C212 8660   5.123   1.945   4.721
   82POPS  H12R 8661   5.165   1.933   4.619
   82POPS  H12S 8662   5.096   2.052   4.734
   82POPS  C213 8663   4.997   1.858   4.733
   82POPS  H13R 8664   4.943   1.884   4.827
   82POPS  H13S 8665   5.028   1.752   4.740
   82POPS  C214 8666   4.898   1.873   4.616
   82POPS  H14R 8667   4.817   1.799   4.633
   82POPS  H14S 8668   4.948   1.845   4.520
   82POPS  C215 8669   4.834   2.012   4.603
   82POPS  H15R 8670   4.815   2.054   4.704
   82POPS  H15S 8671   4.735   1.998   4.554
   82POPS  C216 8672   4.915   2.112   4.519
   82POPS  H16R 8673   4.931   2.069   4.417
   82POPS  H16S 8674   5.016   2.127   4.563
   82POPS  C217 8675   4.849   2.250   4.507
   82POPS  H17R 8676   4.920   2.319   4.459
   82POPS  H17S 8677   4.830   2.288   4.610
   82POPS  C218 8678   4.718   2.249   4.429
   82POPS  H18R 8679   4.647   2.173   4.466
   82POPS  H18S 8680   4.738   2.232   4.321
   82POPS  H18T 8681   4.668   2.349   4.435
   82POPS   C33 8682   4.672   2.444   5.588
   82POPS   H3X 8683   4.746   2.431   5.670
   82POPS   H3Y 8684   4.608   2.530   5.619
   82POPS   C34 8685   4.746   2.482   5.459
   82POPS   H4X 8686   4.817   2.402   5.430
   82POPS   H4Y 8687   4.808   2.571   5.482
   82POPS   C35 8688   4.651   2.511   5.343
   82POPS   H5X 8689   4.550   2.533   5.384
   82POPS   H5Y 8690   4.640   2.422   5.277
   82POPS   C36 8691   4.693   2.634   5.261
   82POPS   H6X 8692   4.747   2.706   5.326
   82POPS   H6Y 8693   4.602   2.686   5.225
   82POPS   C37 8694   4.779   2.599   5.140
   82POPS   H7X 8695   4.853   2.520   5.164
   82POPS   H7Y 8696   4.835   2.690   5.110
   82POPS   C38 8697   4.691   2.558   5.022
   82POPS   H8X 8698   4.606   2.629   5.017
   82POPS   H8Y 8699   4.649   2.456   5.039
   82POPS   C39 8700   4.764   2.564   4.888
   82POPS   H9X 8701   4.840   2.483   4.881
   82POPS   H9Y 8702   4.817   2.661   4.880
   82POPS  C310 8703   4.662   2.554   4.775
   82POPS  H10X 8704   4.579   2.624   4.796
   82POPS  H10Y 8705   4.620   2.451   4.773
   82POPS  C311 8706   4.719   2.590   4.638
   82POPS  H11X 8707   4.800   2.519   4.612
   82POPS  H11Y 8708   4.761   2.692   4.641
   82POPS  C312 8709   4.607   2.581   4.535
   82POPS  H12X 8710   4.525   2.650   4.564
   82POPS  H12Y 8711   4.566   2.478   4.544
   82POPS  C313 8712   4.651   2.605   4.391
   82POPS  H13X 8713   4.743   2.544   4.377
   82POPS  H13Y 8714   4.679   2.712   4.378
   82POPS  C314 8715   4.548   2.566   4.283
   82POPS  H14X 8716   4.503   2.468   4.311
   82POPS  H14Y 8717   4.600   2.549   4.186
   82POPS  C315 8718   4.439   2.671   4.260
   82POPS  H15X 8719   4.407   2.711   4.359
   82POPS  H15Y 8720   4.351   2.622   4.213
   82POPS  C316 8721   4.483   2.788   4.171
   82POPS  H16X 8722   4.406   2.867   4.168
   82POPS  H16Y 8723   4.501   2.752   4.067
   82POPS  H16Z 8724   4.578   2.833   4.208
   83POPS     N 8725   2.894   5.475   6.193
   83POPS   HN1 8726   2.981   5.423   6.215
   83POPS   HN2 8727   2.812   5.410   6.191
   83POPS   HN3 8728   2.902   5.528   6.104
   83POPS   C12 8729   2.867   5.567   6.307
   83POPS  H12A 8730   2.952   5.565   6.374
   83POPS   C13 8731   2.747   5.521   6.392
   83POPS  O13A 8732   2.687   5.416   6.359
   83POPS  O13B 8733   2.720   5.584   6.497
   83POPS   C11 8734   2.853   5.711   6.252
   83POPS  H11A 8735   2.795   5.773   6.323
   83POPS  H11B 8736   2.799   5.712   6.155
   83POPS     P 8737   3.028   5.873   6.138
   83POPS   O13 8738   3.163   5.921   6.174
   83POPS   O14 8739   2.918   5.972   6.132
   83POPS   O12 8740   2.986   5.763   6.243
   83POPS   O11 8741   3.035   5.784   6.008
   83POPS    C1 8742   3.131   5.677   6.006
   83POPS    HA 8743   3.119   5.611   6.095
   83POPS    HB 8744   3.234   5.718   6.007
   83POPS    C2 8745   3.116   5.589   5.879
   83POPS    HS 8746   3.170   5.644   5.799
   83POPS   O21 8747   2.976   5.565   5.852
   83POPS   C21 8748   2.939   5.605   5.731
   83POPS   O22 8749   3.008   5.665   5.651
   83POPS   C22 8750   2.797   5.555   5.701
   83POPS   H2R 8751   2.728   5.590   5.781
   83POPS   H2S 8752   2.799   5.444   5.701
   83POPS    C3 8753   3.188   5.452   5.896
   83POPS    HX 8754   3.126   5.385   5.960
   83POPS    HY 8755   3.282   5.470   5.952
   83POPS   O31 8756   3.222   5.393   5.769
   83POPS   C31 8757   3.128   5.315   5.715
   83POPS   O32 8758   3.021   5.287   5.765
   83POPS   C32 8759   3.181   5.258   5.584
   83POPS   H2X 8760   3.118   5.172   5.555
   83POPS   H2Y 8761   3.284   5.223   5.605
   83POPS   C23 8762   2.753   5.608   5.563
   83POPS   H3R 8763   2.833   5.591   5.488
   83POPS   H3S 8764   2.738   5.718   5.569
   83POPS   C24 8765   2.626   5.542   5.506
   83POPS   H4R 8766   2.547   5.536   5.585
   83POPS   H4S 8767   2.651   5.437   5.477
   83POPS   C25 8768   2.570   5.617   5.384
   83POPS   H5R 8769   2.512   5.705   5.420
   83POPS   H5S 8770   2.497   5.552   5.331
   83POPS   C26 8771   2.677   5.667   5.286
   83POPS   H6R 8772   2.739   5.580   5.252
   83POPS   H6S 8773   2.745   5.738   5.338
   83POPS   C27 8774   2.618   5.739   5.164
   83POPS   H7R 8775   2.672   5.836   5.149
   83POPS   H7S 8776   2.511   5.762   5.184
   83POPS   C28 8777   2.633   5.656   5.037
   83POPS   H8R 8778   2.595   5.554   5.062
   83POPS   H8S 8779   2.741   5.645   5.014
   83POPS   C29 8780   2.554   5.712   4.921
   83POPS   H91 8781   2.445   5.707   4.931
   83POPS  C210 8782   2.607   5.764   4.809
   83POPS  H101 8783   2.539   5.797   4.729
   83POPS  C211 8784   2.753   5.778   4.778
   83POPS  H11R 8785   2.804   5.680   4.792
   83POPS  H11S 8786   2.802   5.849   4.848
   83POPS  C212 8787   2.776   5.828   4.634
   83POPS  H12R 8788   2.757   5.937   4.631
   83POPS  H12S 8789   2.706   5.779   4.563
   83POPS  C213 8790   2.919   5.799   4.585
   83POPS  H13R 8791   2.990   5.828   4.665
   83POPS  H13S 8792   2.940   5.863   4.497
   83POPS  C214 8793   2.939   5.652   4.546
   83POPS  H14R 8794   2.903   5.635   4.443
   83POPS  H14S 8795   2.878   5.588   4.614
   83POPS  C215 8796   3.085   5.605   4.559
   83POPS  H15R 8797   3.093   5.496   4.539
   83POPS  H15S 8798   3.118   5.623   4.664
   83POPS  C216 8799   3.181   5.677   4.464
   83POPS  H16R 8800   3.133   5.772   4.433
   83POPS  H16S 8801   3.194   5.616   4.371
   83POPS  C217 8802   3.317   5.709   4.526
   83POPS  H17R 8803   3.302   5.763   4.621
   83POPS  H17S 8804   3.372   5.777   4.458
   83POPS  C218 8805   3.402   5.584   4.551
   83POPS  H18R 8806   3.353   5.518   4.625
   83POPS  H18S 8807   3.502   5.612   4.590
   83POPS  H18T 8808   3.416   5.527   4.456
   83POPS   C33 8809   3.190   5.361   5.469
   83POPS   H3X 8810   3.247   5.315   5.386
   83POPS   H3Y 8811   3.247   5.450   5.504
   83POPS   C34 8812   3.055   5.406   5.415
   83POPS   H4X 8813   2.994   5.444   5.499
   83POPS   H4Y 8814   3.000   5.320   5.370
   83POPS   C35 8815   3.071   5.520   5.312
   83POPS   H5X 8816   3.140   5.596   5.355
   83POPS   H5Y 8817   2.973   5.569   5.298
   83POPS   C36 8818   3.123   5.474   5.175
   83POPS   H6X 8819   3.217   5.418   5.185
   83POPS   H6Y 8820   3.144   5.565   5.115
   83POPS   C37 8821   3.019   5.390   5.100
   83POPS   H7X 8822   2.920   5.441   5.109
   83POPS   H7Y 8823   3.009   5.290   5.146
   83POPS   C38 8824   3.049   5.375   4.951
   83POPS   H8X 8825   3.140   5.313   4.935
   83POPS   H8Y 8826   3.070   5.475   4.907
   83POPS   C39 8827   2.930   5.314   4.877
   83POPS   H9X 8828   2.843   5.381   4.894
   83POPS   H9Y 8829   2.906   5.214   4.919
   83POPS  C310 8830   2.951   5.304   4.726
   83POPS  H10X 8831   3.030   5.229   4.705
   83POPS  H10Y 8832   2.988   5.403   4.692
   83POPS  C311 8833   2.822   5.271   4.649
   83POPS  H11X 8834   2.742   5.341   4.682
   83POPS  H11Y 8835   2.790   5.168   4.674
   83POPS  C312 8836   2.838   5.285   4.497
   83POPS  H12X 8837   2.851   5.392   4.471
   83POPS  H12Y 8838   2.747   5.249   4.446
   83POPS  C313 8839   2.957   5.205   4.446
   83POPS  H13X 8840   2.951   5.102   4.487
   83POPS  H13Y 8841   3.049   5.253   4.484
   83POPS  C314 8842   2.964   5.198   4.294
   83POPS  H14X 8843   2.864   5.177   4.250
   83POPS  H14Y 8844   3.031   5.114   4.265
   83POPS  C315 8845   3.024   5.325   4.235
   83POPS  H15X 8846   3.120   5.347   4.286
   83POPS  H15Y 8847   2.956   5.411   4.254
   83POPS  C316 8848   3.049   5.310   4.086
   83POPS  H16X 8849   3.118   5.225   4.067
   83POPS  H16Y 8850   3.096   5.403   4.047
   83POPS  H16Z 8851   2.954   5.292   4.032
   84POPS     N 8852   2.597   1.894   6.241
   84POPS   HN1 8853   2.529   1.859   6.170
   84POPS   HN2 8854   2.693   1.895   6.201
   84POPS   HN3 8855   2.592   1.834   6.326
   84POPS   C12 8856   2.564   2.033   6.279
   84POPS  H12A 8857   2.598   2.049   6.380
   84POPS   C13 8858   2.413   2.062   6.282
   84POPS  O13A 8859   2.333   1.971   6.246
   84POPS  O13B 8860   2.376   2.171   6.331
   84POPS   C11 8861   2.648   2.124   6.186
   84POPS  H11A 8862   2.627   2.231   6.210
   84POPS  H11B 8863   2.624   2.107   6.079
   84POPS     P 8864   2.907   2.167   6.151
   84POPS   O13 8865   3.028   2.111   6.216
   84POPS   O14 8866   2.888   2.313   6.166
   84POPS   O12 8867   2.785   2.091   6.214
   84POPS   O11 8868   2.902   2.123   6.001
   84POPS    C1 8869   2.954   1.999   5.951
   84POPS    HA 8870   2.989   1.930   6.031
   84POPS    HB 8871   3.041   2.022   5.887
   84POPS    C2 8872   2.852   1.921   5.861
   84POPS    HS 8873   2.907   1.876   5.775
   84POPS   O21 8874   2.746   2.007   5.817
   84POPS   C21 8875   2.789   2.085   5.718
   84POPS   O22 8876   2.898   2.078   5.664
   84POPS   C22 8877   2.679   2.186   5.686
   84POPS   H2R 8878   2.675   2.260   5.769
   84POPS   H2S 8879   2.582   2.131   5.683
   84POPS    C3 8880   2.790   1.799   5.934
   84POPS    HX 8881   2.760   1.835   6.034
   84POPS    HY 8882   2.872   1.725   5.945
   84POPS   O31 8883   2.682   1.743   5.857
   84POPS   C31 8884   2.574   1.705   5.922
   84POPS   O32 8885   2.560   1.708   6.044
   84POPS   C32 8886   2.462   1.660   5.829
   84POPS   H2X 8887   2.373   1.722   5.850
   84POPS   H2Y 8888   2.439   1.554   5.856
   84POPS   C23 8889   2.701   2.257   5.551
   84POPS   H3R 8890   2.613   2.321   5.530
   84POPS   H3S 8891   2.708   2.181   5.470
   84POPS   C24 8892   2.827   2.346   5.548
   84POPS   H4R 8893   2.918   2.283   5.556
   84POPS   H4S 8894   2.825   2.414   5.636
   84POPS   C25 8895   2.840   2.429   5.420
   84POPS   H5R 8896   2.938   2.482   5.420
   84POPS   H5S 8897   2.761   2.507   5.424
   84POPS   C26 8898   2.825   2.350   5.289
   84POPS   H6R 8899   2.822   2.426   5.208
   84POPS   H6S 8900   2.727   2.298   5.287
   84POPS   C27 8901   2.935   2.247   5.260
   84POPS   H7R 8902   2.939   2.173   5.342
   84POPS   H7S 8903   3.033   2.299   5.258
   84POPS   C28 8904   2.914   2.171   5.126
   84POPS   H8R 8905   2.825   2.105   5.135
   84POPS   H8S 8906   3.002   2.106   5.109
   84POPS   C29 8907   2.897   2.268   5.012
   84POPS   H91 8908   2.925   2.371   5.036
   84POPS  C210 8909   2.853   2.244   4.888
   84POPS  H101 8910   2.850   2.329   4.818
   84POPS  C211 8911   2.809   2.113   4.828
   84POPS  H11R 8912   2.698   2.107   4.827
   84POPS  H11S 8913   2.847   2.027   4.886
   84POPS  C212 8914   2.857   2.100   4.681
   84POPS  H12R 8915   2.833   1.997   4.646
   84POPS  H12S 8916   2.967   2.113   4.674
   84POPS  C213 8917   2.786   2.199   4.587
   84POPS  H13R 8918   2.810   2.304   4.616
   84POPS  H13S 8919   2.677   2.183   4.599
   84POPS  C214 8920   2.820   2.182   4.439
   84POPS  H14R 8921   2.805   2.075   4.412
   84POPS  H14S 8922   2.927   2.205   4.421
   84POPS  C215 8923   2.732   2.271   4.351
   84POPS  H15R 8924   2.771   2.375   4.355
   84POPS  H15S 8925   2.629   2.273   4.394
   84POPS  C216 8926   2.720   2.227   4.205
   84POPS  H16R 8927   2.663   2.307   4.152
   84POPS  H16S 8928   2.659   2.134   4.198
   84POPS  C217 8929   2.854   2.204   4.133
   84POPS  H17R 8930   2.931   2.271   4.177
   84POPS  H17S 8931   2.843   2.233   4.026
   84POPS  C218 8932   2.901   2.058   4.135
   84POPS  H18R 8933   2.993   2.046   4.074
   84POPS  H18S 8934   2.822   1.991   4.094
   84POPS  H18T 8935   2.923   2.025   4.238
   84POPS   C33 8936   2.494   1.664   5.678
   84POPS   H3X 8937   2.416   1.605   5.625
   84POPS   H3Y 8938   2.591   1.616   5.656
   84POPS   C34 8939   2.491   1.806   5.619
   84POPS   H4X 8940   2.577   1.864   5.658
   84POPS   H4Y 8941   2.397   1.858   5.646
   84POPS   C35 8942   2.502   1.798   5.466
   84POPS   H5X 8943   2.411   1.746   5.427
   84POPS   H5Y 8944   2.590   1.735   5.441
   84POPS   C36 8945   2.517   1.933   5.397
   84POPS   H6X 8946   2.612   1.981   5.428
   84POPS   H6Y 8947   2.433   2.000   5.427
   84POPS   C37 8948   2.515   1.915   5.245
   84POPS   H7X 8949   2.424   1.857   5.219
   84POPS   H7Y 8950   2.603   1.856   5.213
   84POPS   C38 8951   2.513   2.047   5.167
   84POPS   H8X 8952   2.604   2.106   5.193
   84POPS   H8Y 8953   2.424   2.106   5.198
   84POPS   C39 8954   2.508   2.025   5.015
   84POPS   H9X 8955   2.601   1.975   4.982
   84POPS   H9Y 8956   2.503   2.125   4.966
   84POPS  C310 8957   2.387   1.941   4.971
   84POPS  H10X 8958   2.298   1.977   5.027
   84POPS  H10Y 8959   2.402   1.834   4.996
   84POPS  C311 8960   2.358   1.955   4.821
   84POPS  H11X 8961   2.365   2.062   4.794
   84POPS  H11Y 8962   2.253   1.922   4.801
   84POPS  C312 8963   2.452   1.874   4.731
   84POPS  H12X 8964   2.426   1.766   4.737
   84POPS  H12Y 8965   2.557   1.885   4.766
   84POPS  C313 8966   2.442   1.924   4.587
   84POPS  H13X 8967   2.479   2.029   4.585
   84POPS  H13Y 8968   2.336   1.926   4.556
   84POPS  C314 8969   2.523   1.841   4.487
   84POPS  H14X 8970   2.469   1.746   4.466
   84POPS  H14Y 8971   2.621   1.815   4.531
   84POPS  C315 8972   2.547   1.918   4.356
   84POPS  H15X 8973   2.597   1.852   4.283
   84POPS  H15Y 8974   2.617   2.001   4.378
   84POPS  C316 8975   2.421   1.980   4.294
   84POPS  H16X 8976   2.442   2.015   4.191
   84POPS  H16Y 8977   2.387   2.068   4.354
   84POPS  H16Z 8978   2.338   1.907   4.290
   85POPS     N 8979   4.418   1.961   6.167
   85POPS   HN1 8980   4.332   1.950   6.111
   85POPS   HN2 8981   4.432   2.059   6.201
   85POPS   HN3 8982   4.501   1.933   6.111
   85POPS   C12 8983   4.410   1.868   6.284
   85POPS  H12A 8984   4.333   1.905   6.350
   85POPS   C13 8985   4.542   1.860   6.366
   85POPS  O13A 8986   4.637   1.938   6.336
   85POPS  O13B 8987   4.552   1.775   6.458
   85POPS   C11 8988   4.371   1.726   6.233
   85POPS  H11A 8989   4.345   1.666   6.323
   85POPS  H11B 8990   4.461   1.681   6.186
   85POPS     P 8991   4.214   1.585   6.088
   85POPS   O13 8992   4.126   1.527   6.193
   85POPS   O14 8993   4.336   1.507   6.056
   85POPS   O12 8994   4.261   1.729   6.140
   85POPS   O11 8995   4.131   1.615   5.957
   85POPS    C1 8996   3.989   1.601   5.955
   85POPS    HA 8997   3.942   1.644   6.047
   85POPS    HB 8998   3.961   1.494   5.949
   85POPS    C2 8999   3.925   1.675   5.834
   85POPS    HS 9000   3.815   1.663   5.841
   85POPS   O21 9001   3.972   1.625   5.710
   85POPS   C21 9002   3.928   1.510   5.671
   85POPS   O22 9003   3.830   1.451   5.715
   85POPS   C22 9004   4.023   1.462   5.562
   85POPS   H2R 9005   3.985   1.502   5.466
   85POPS   H2S 9006   4.017   1.351   5.558
   85POPS    C3 9007   3.957   1.826   5.830
   85POPS    HX 9008   3.914   1.870   5.922
   85POPS    HY 9009   3.903   1.870   5.744
   85POPS   O31 9010   4.098   1.857   5.824
   85POPS   C31 9011   4.151   1.872   5.701
   85POPS   O32 9012   4.094   1.852   5.596
   85POPS   C32 9013   4.283   1.946   5.717
   85POPS   H2X 9014   4.309   1.957   5.825
   85POPS   H2Y 9015   4.264   2.047   5.675
   85POPS   C23 9016   4.168   1.510   5.591
   85POPS   H3R 9017   4.185   1.516   5.700
   85POPS   H3S 9018   4.179   1.613   5.551
   85POPS   C24 9019   4.284   1.423   5.538
   85POPS   H4R 9020   4.285   1.327   5.593
   85POPS   H4S 9021   4.379   1.476   5.563
   85POPS   C25 9022   4.284   1.392   5.387
   85POPS   H5R 9023   4.220   1.302   5.375
   85POPS   H5S 9024   4.386   1.364   5.355
   85POPS   C26 9025   4.230   1.501   5.294
   85POPS   H6R 9026   4.297   1.589   5.288
   85POPS   H6S 9027   4.133   1.540   5.333
   85POPS   C27 9028   4.203   1.448   5.153
   85POPS   H7R 9029   4.204   1.337   5.155
   85POPS   H7S 9030   4.284   1.479   5.084
   85POPS   C28 9031   4.065   1.493   5.101
   85POPS   H8R 9032   3.987   1.471   5.178
   85POPS   H8S 9033   4.039   1.430   5.013
   85POPS   C29 9034   4.068   1.639   5.067
   85POPS   H91 9035   4.056   1.709   5.152
   85POPS  C210 9036   4.086   1.688   4.944
   85POPS  H101 9037   4.087   1.796   4.927
   85POPS  C211 9038   4.107   1.601   4.822
   85POPS  H11R 9039   4.154   1.504   4.851
   85POPS  H11S 9040   4.180   1.646   4.751
   85POPS  C212 9041   3.978   1.574   4.743
   85POPS  H12R 9042   3.930   1.671   4.718
   85POPS  H12S 9043   3.907   1.514   4.804
   85POPS  C213 9044   4.008   1.501   4.611
   85POPS  H13R 9045   4.080   1.564   4.555
   85POPS  H13S 9046   3.916   1.494   4.550
   85POPS  C214 9047   4.066   1.360   4.629
   85POPS  H14R 9048   3.982   1.288   4.636
   85POPS  H14S 9049   4.123   1.352   4.724
   85POPS  C215 9050   4.161   1.319   4.517
   85POPS  H15R 9051   4.107   1.321   4.420
   85POPS  H15S 9052   4.191   1.213   4.535
   85POPS  C216 9053   4.289   1.404   4.508
   85POPS  H16R 9054   4.324   1.426   4.611
   85POPS  H16S 9055   4.269   1.501   4.459
   85POPS  C217 9056   4.403   1.331   4.434
   85POPS  H17R 9057   4.426   1.242   4.496
   85POPS  H17S 9058   4.494   1.394   4.431
   85POPS  C218 9059   4.370   1.278   4.295
   85POPS  H18R 9060   4.419   1.180   4.278
   85POPS  H18S 9061   4.403   1.349   4.217
   85POPS  H18T 9062   4.260   1.261   4.285
   85POPS   C33 9063   4.403   1.888   5.640
   85POPS   H3X 9064   4.487   1.960   5.653
   85POPS   H3Y 9065   4.381   1.884   5.531
   85POPS   C34 9066   4.452   1.753   5.691
   85POPS   H4X 9067   4.381   1.675   5.657
   85POPS   H4Y 9068   4.451   1.752   5.802
   85POPS   C35 9069   4.595   1.718   5.644
   85POPS   H5X 9070   4.616   1.612   5.670
   85POPS   H5Y 9071   4.667   1.781   5.700
   85POPS   C36 9072   4.621   1.739   5.493
   85POPS   H6X 9073   4.725   1.707   5.470
   85POPS   H6Y 9074   4.614   1.847   5.469
   85POPS   C37 9075   4.524   1.662   5.403
   85POPS   H7X 9076   4.420   1.693   5.424
   85POPS   H7Y 9077   4.531   1.554   5.429
   85POPS   C38 9078   4.552   1.677   5.253
   85POPS   H8X 9079   4.509   1.589   5.201
   85POPS   H8Y 9080   4.661   1.676   5.234
   85POPS   C39 9081   4.489   1.802   5.189
   85POPS   H9X 9082   4.536   1.893   5.232
   85POPS   H9Y 9083   4.381   1.806   5.214
   85POPS  C310 9084   4.506   1.801   5.037
   85POPS  H10X 9085   4.455   1.710   4.996
   85POPS  H10Y 9086   4.614   1.792   5.013
   85POPS  C311 9087   4.451   1.925   4.965
   85POPS  H11X 9088   4.502   2.015   5.007
   85POPS  H11Y 9089   4.342   1.936   4.986
   85POPS  C312 9090   4.475   1.920   4.813
   85POPS  H12X 9091   4.576   1.876   4.796
   85POPS  H12Y 9092   4.478   2.023   4.771
   85POPS  C313 9093   4.370   1.837   4.738
   85POPS  H13X 9094   4.348   1.749   4.803
   85POPS  H13Y 9095   4.412   1.796   4.644
   85POPS  C314 9096   4.240   1.913   4.706
   85POPS  H14X 9097   4.234   1.996   4.780
   85POPS  H14Y 9098   4.150   1.849   4.723
   85POPS  C315 9099   4.227   1.969   4.563
   85POPS  H15X 9100   4.328   1.983   4.520
   85POPS  H15Y 9101   4.180   2.069   4.570
   85POPS  C316 9102   4.139   1.883   4.471
   85POPS  H16X 9103   4.176   1.779   4.468
   85POPS  H16Y 9104   4.140   1.924   4.368
   85POPS  H16Z 9105   4.034   1.883   4.508
   86POPS     N 9106   4.004   5.920   6.232
   86POPS   HN1 9107   3.902   5.925   6.250
   86POPS   HN2 9108   4.025   5.907   6.131
   86POPS   HN3 9109   4.044   5.843   6.289
   86POPS   C12 9110   4.064   6.050   6.277
   86POPS  H12A 9111   4.171   6.040   6.269
   86POPS   C13 9112   4.031   6.081   6.426
   86POPS  O13A 9113   3.940   6.014   6.483
   86POPS  O13B 9114   4.097   6.168   6.487
   86POPS   C11 9115   4.010   6.162   6.181
   86POPS  H11A 9116   3.917   6.205   6.224
   86POPS  H11B 9117   3.981   6.119   6.083
   86POPS     P 9118   4.221   6.251   6.055
   86POPS   O13 9119   4.301   6.135   6.097
   86POPS   O14 9120   4.289   6.382   6.040
   86POPS   O12 9121   4.104   6.268   6.162
   86POPS   O11 9122   4.141   6.212   5.925
   86POPS    C1 9123   4.066   6.304   5.845
   86POPS    HA 9124   4.102   6.409   5.859
   86POPS    HB 9125   3.959   6.301   5.873
   86POPS    C2 9126   4.078   6.272   5.693
   86POPS    HS 9127   4.025   6.351   5.636
   86POPS   O21 9128   4.025   6.142   5.662
   86POPS   C21 9129   3.897   6.136   5.630
   86POPS   O22 9130   3.815   6.225   5.647
   86POPS   C22 9131   3.872   6.000   5.564
   86POPS   H2R 9132   3.864   5.925   5.646
   86POPS   H2S 9133   3.961   5.974   5.503
   86POPS    C3 9134   4.227   6.275   5.646
   86POPS    HX 9135   4.288   6.210   5.713
   86POPS    HY 9136   4.265   6.379   5.659
   86POPS   O31 9137   4.236   6.239   5.507
   86POPS   C31 9138   4.255   6.110   5.484
   86POPS   O32 9139   4.280   6.023   5.566
   86POPS   C32 9140   4.230   6.083   5.336
   86POPS   H2X 9141   4.319   6.118   5.279
   86POPS   H2Y 9142   4.145   6.144   5.302
   86POPS   C23 9143   3.745   5.992   5.475
   86POPS   H3R 9144   3.655   6.013   5.538
   86POPS   H3S 9145   3.733   5.888   5.438
   86POPS   C24 9146   3.743   6.089   5.355
   86POPS   H4R 9147   3.753   6.193   5.391
   86POPS   H4S 9148   3.644   6.082   5.305
   86POPS   C25 9149   3.851   6.063   5.248
   86POPS   H5R 9150   3.950   6.077   5.296
   86POPS   H5S 9151   3.842   6.139   5.168
   86POPS   C26 9152   3.847   5.923   5.184
   86POPS   H6R 9153   3.860   5.846   5.264
   86POPS   H6S 9154   3.934   5.913   5.116
   86POPS   C27 9155   3.721   5.891   5.103
   86POPS   H7R 9156   3.631   5.914   5.166
   86POPS   H7S 9157   3.719   5.782   5.083
   86POPS   C28 9158   3.711   5.964   4.968
   86POPS   H8R 9159   3.724   6.073   4.985
   86POPS   H8S 9160   3.608   5.949   4.928
   86POPS   C29 9161   3.811   5.905   4.871
   86POPS   H91 9162   3.803   5.796   4.859
   86POPS  C210 9163   3.907   5.970   4.802
   86POPS  H101 9164   3.973   5.912   4.737
   86POPS  C211 9165   3.935   6.118   4.805
   86POPS  H11R 9166   3.853   6.175   4.853
   86POPS  H11S 9167   3.937   6.153   4.699
   86POPS  C212 9168   4.066   6.160   4.875
   86POPS  H12R 9169   4.060   6.130   4.982
   86POPS  H12S 9170   4.073   6.270   4.873
   86POPS  C213 9171   4.197   6.104   4.816
   86POPS  H13R 9172   4.200   5.994   4.833
   86POPS  H13S 9173   4.283   6.147   4.872
   86POPS  C214 9174   4.219   6.130   4.666
   86POPS  H14R 9175   4.140   6.077   4.608
   86POPS  H14S 9176   4.317   6.085   4.638
   86POPS  C215 9177   4.220   6.277   4.622
   86POPS  H15R 9178   4.289   6.286   4.536
   86POPS  H15S 9179   4.260   6.342   4.703
   86POPS  C216 9180   4.083   6.328   4.574
   86POPS  H16R 9181   4.017   6.342   4.663
   86POPS  H16S 9182   4.036   6.251   4.508
   86POPS  C217 9183   4.087   6.460   4.497
   86POPS  H17R 9184   4.140   6.534   4.560
   86POPS  H17S 9185   3.983   6.497   4.485
   86POPS  C218 9186   4.152   6.452   4.358
   86POPS  H18R 9187   4.146   6.550   4.307
   86POPS  H18S 9188   4.100   6.377   4.295
   86POPS  H18T 9189   4.259   6.423   4.366
   86POPS   C33 9190   4.204   5.932   5.309
   86POPS   H3X 9191   4.105   5.904   5.350
   86POPS   H3Y 9192   4.280   5.869   5.360
   86POPS   C34 9193   4.208   5.901   5.160
   86POPS   H4X 9194   4.308   5.924   5.118
   86POPS   H4Y 9195   4.137   5.970   5.109
   86POPS   C35 9196   4.170   5.756   5.126
   86POPS   H5X 9197   4.074   5.731   5.175
   86POPS   H5Y 9198   4.247   5.686   5.164
   86POPS   C36 9199   4.155   5.743   4.975
   86POPS   H6X 9200   4.255   5.757   4.928
   86POPS   H6Y 9201   4.090   5.827   4.941
   86POPS   C37 9202   4.092   5.613   4.925
   86POPS   H7X 9203   4.002   5.589   4.986
   86POPS   H7Y 9204   4.166   5.532   4.942
   86POPS   C38 9205   4.051   5.620   4.777
   86POPS   H8X 9206   3.956   5.678   4.768
   86POPS   H8Y 9207   4.029   5.518   4.738
   86POPS   C39 9208   4.156   5.689   4.689
   86POPS   H9X 9209   4.254   5.638   4.699
   86POPS   H9Y 9210   4.170   5.792   4.727
   86POPS  C310 9211   4.119   5.703   4.540
   86POPS  H10X 9212   4.009   5.692   4.526
   86POPS  H10Y 9213   4.167   5.622   4.481
   86POPS  C311 9214   4.163   5.839   4.486
   86POPS  H11X 9215   4.250   5.875   4.546
   86POPS  H11Y 9216   4.080   5.911   4.500
   86POPS  C312 9217   4.209   5.842   4.340
   86POPS  H12X 9218   4.126   5.806   4.275
   86POPS  H12Y 9219   4.295   5.773   4.328
   86POPS  C313 9220   4.250   5.984   4.299
   86POPS  H13X 9221   4.332   6.019   4.366
   86POPS  H13Y 9222   4.164   6.052   4.315
   86POPS  C314 9223   4.296   5.992   4.153
   86POPS  H14X 9224   4.218   5.942   4.091
   86POPS  H14Y 9225   4.391   5.937   4.140
   86POPS  C315 9226   4.314   6.134   4.099
   86POPS  H15X 9227   4.408   6.178   4.140
   86POPS  H15Y 9228   4.231   6.199   4.133
   86POPS  C316 9229   4.319   6.135   3.946
   86POPS  H16X 9230   4.411   6.084   3.910
   86POPS  H16Y 9231   4.318   6.238   3.906
   86POPS  H16Z 9232   4.231   6.080   3.904
   87POPS     N 9233   6.444   2.737   6.299
   87POPS   HN1 9234   6.402   2.654   6.345
   87POPS   HN2 9235   6.446   2.721   6.196
   87POPS   HN3 9236   6.541   2.750   6.333
   87POPS   C12 9237   6.350   2.853   6.319
   87POPS  H12A 9238   6.402   2.943   6.287
   87POPS   C13 9239   6.296   2.879   6.461
   87POPS  O13A 9240   6.330   2.801   6.554
   87POPS  O13B 9241   6.219   2.977   6.481
   87POPS   C11 9242   6.228   2.827   6.228
   87POPS  H11A 9243   6.163   2.917   6.226
   87POPS  H11B 9244   6.166   2.744   6.269
   87POPS     P 9245   6.313   2.898   5.991
   87POPS   O13 9246   6.422   2.838   5.912
   87POPS   O14 9247   6.344   3.022   6.067
   87POPS   O12 9248   6.272   2.788   6.098
   87POPS   O11 9249   6.178   2.910   5.912
   87POPS    C1 9250   6.059   2.956   5.979
   87POPS    HA 9251   6.080   3.052   6.030
   87POPS    HB 9252   6.025   2.882   6.054
   87POPS    C2 9253   5.940   2.979   5.882
   87POPS    HS 9254   5.870   2.893   5.897
   87POPS   O21 9255   5.988   2.986   5.746
   87POPS   C21 9256   5.919   2.916   5.658
   87POPS   O22 9257   5.815   2.858   5.683
   87POPS   C22 9258   5.983   2.923   5.521
   87POPS   H2R 9259   5.955   3.021   5.478
   87POPS   H2S 9260   5.938   2.843   5.458
   87POPS    C3 9261   5.861   3.107   5.918
   87POPS    HX 9262   5.820   3.095   6.021
   87POPS    HY 9263   5.775   3.121   5.850
   87POPS   O31 9264   5.951   3.219   5.920
   87POPS   C31 9265   5.960   3.284   5.805
   87POPS   O32 9266   5.886   3.268   5.709
   87POPS   C32 9267   6.085   3.371   5.811
   87POPS   H2X 9268   6.173   3.305   5.813
   87POPS   H2Y 9269   6.081   3.426   5.908
   87POPS   C23 9270   6.137   2.908   5.525
   87POPS   H3R 9271   6.183   2.976   5.599
   87POPS   H3S 9272   6.172   2.940   5.424
   87POPS   C24 9273   6.185   2.765   5.548
   87POPS   H4R 9274   6.129   2.697   5.480
   87POPS   H4S 9275   6.162   2.736   5.653
   87POPS   C25 9276   6.336   2.746   5.523
   87POPS   H5R 9277   6.358   2.638   5.531
   87POPS   H5S 9278   6.393   2.797   5.603
   87POPS   C26 9279   6.381   2.800   5.386
   87POPS   H6R 9280   6.423   2.902   5.400
   87POPS   H6S 9281   6.292   2.811   5.320
   87POPS   C27 9282   6.480   2.711   5.311
   87POPS   H7R 9283   6.568   2.691   5.376
   87POPS   H7S 9284   6.516   2.766   5.221
   87POPS   C28 9285   6.419   2.578   5.265
   87POPS   H8R 9286   6.389   2.521   5.355
   87POPS   H8S 9287   6.500   2.519   5.215
   87POPS   C29 9288   6.300   2.592   5.173
   87POPS   H91 9289   6.202   2.597   5.224
   87POPS  C210 9290   6.305   2.599   5.039
   87POPS  H101 9291   6.211   2.609   4.983
   87POPS  C211 9292   6.431   2.595   4.957
   87POPS  H11R 9293   6.457   2.490   4.931
   87POPS  H11S 9294   6.517   2.637   5.013
   87POPS  C212 9295   6.416   2.675   4.826
   87POPS  H12R 9296   6.517   2.687   4.781
   87POPS  H12S 9297   6.377   2.777   4.847
   87POPS  C213 9298   6.326   2.605   4.723
   87POPS  H13R 9299   6.226   2.584   4.766
   87POPS  H13S 9300   6.372   2.507   4.696
   87POPS  C214 9301   6.309   2.689   4.596
   87POPS  H14R 9302   6.410   2.719   4.562
   87POPS  H14S 9303   6.252   2.781   4.620
   87POPS  C215 9304   6.238   2.612   4.484
   87POPS  H15R 9305   6.139   2.578   4.520
   87POPS  H15S 9306   6.298   2.521   4.461
   87POPS  C216 9307   6.220   2.693   4.355
   87POPS  H16R 9308   6.142   2.771   4.371
   87POPS  H16S 9309   6.182   2.625   4.275
   87POPS  C217 9310   6.350   2.759   4.308
   87POPS  H17R 9311   6.430   2.682   4.309
   87POPS  H17S 9312   6.378   2.839   4.380
   87POPS  C218 9313   6.342   2.820   4.168
   87POPS  H18R 9314   6.268   2.903   4.167
   87POPS  H18S 9315   6.311   2.743   4.094
   87POPS  H18T 9316   6.441   2.860   4.137
   87POPS   C33 9317   6.091   3.474   5.696
   87POPS   H3X 9318   6.176   3.543   5.717
   87POPS   H3Y 9319   5.999   3.535   5.697
   87POPS   C34 9320   6.109   3.415   5.555
   87POPS   H4X 9321   6.174   3.485   5.498
   87POPS   H4Y 9322   6.010   3.412   5.505
   87POPS   C35 9323   6.168   3.273   5.551
   87POPS   H5X 9324   6.097   3.202   5.599
   87POPS   H5Y 9325   6.261   3.268   5.611
   87POPS   C36 9326   6.198   3.215   5.412
   87POPS   H6X 9327   6.124   3.134   5.394
   87POPS   H6Y 9328   6.299   3.170   5.415
   87POPS   C37 9329   6.184   3.306   5.290
   87POPS   H7X 9330   6.232   3.405   5.311
   87POPS   H7Y 9331   6.076   3.324   5.271
   87POPS   C38 9332   6.252   3.246   5.166
   87POPS   H8X 9333   6.360   3.267   5.177
   87POPS   H8Y 9334   6.217   3.300   5.075
   87POPS   C39 9335   6.237   3.093   5.148
   87POPS   H9X 9336   6.262   3.039   5.241
   87POPS   H9Y 9337   6.313   3.059   5.074
   87POPS  C310 9338   6.099   3.048   5.098
   87POPS  H10X 9339   6.025   3.130   5.111
   87POPS  H10Y 9340   6.065   2.962   5.159
   87POPS  C311 9341   6.102   3.004   4.950
   87POPS  H11X 9342   6.002   2.966   4.920
   87POPS  H11Y 9343   6.174   2.920   4.940
   87POPS  C312 9344   6.144   3.118   4.857
   87POPS  H12X 9345   6.233   3.170   4.898
   87POPS  H12Y 9346   6.061   3.192   4.855
   87POPS  C313 9347   6.180   3.076   4.714
   87POPS  H13X 9348   6.109   2.997   4.681
   87POPS  H13Y 9349   6.280   3.028   4.717
   87POPS  C314 9350   6.177   3.191   4.610
   87POPS  H14X 9351   6.073   3.195   4.571
   87POPS  H14Y 9352   6.241   3.164   4.524
   87POPS  C315 9353   6.209   3.334   4.659
   87POPS  H15X 9354   6.309   3.363   4.621
   87POPS  H15Y 9355   6.215   3.339   4.770
   87POPS  C316 9356   6.107   3.440   4.614
   87POPS  H16X 9357   6.004   3.399   4.617
   87POPS  H16Y 9358   6.128   3.472   4.510
   87POPS  H16Z 9359   6.111   3.528   4.680
   88POPS     N 9360   1.619   5.308   6.193
   88POPS   HN1 9361   1.639   5.384   6.126
   88POPS   HN2 9362   1.688   5.306   6.271
   88POPS   HN3 9363   1.611   5.214   6.148
   88POPS   C12 9364   1.485   5.326   6.257
   88POPS  H12A 9365   1.425   5.389   6.192
   88POPS   C13 9366   1.500   5.396   6.394
   88POPS  O13A 9367   1.615   5.425   6.436
   88POPS  O13B 9368   1.398   5.421   6.462
   88POPS   C11 9369   1.422   5.184   6.270
   88POPS  H11A 9370   1.311   5.196   6.268
   88POPS  H11B 9371   1.449   5.140   6.369
   88POPS     P 9372   1.404   4.954   6.143
   88POPS   O13 9373   1.319   4.923   6.260
   88POPS   O14 9374   1.514   4.862   6.110
   88POPS   O12 9375   1.468   5.098   6.165
   88POPS   O11 9376   1.313   4.981   6.017
   88POPS    C1 9377   1.372   5.045   5.903
   88POPS    HA 9378   1.442   4.976   5.851
   88POPS    HB 9379   1.429   5.135   5.933
   88POPS    C2 9380   1.267   5.093   5.798
   88POPS    HS 9381   1.184   5.140   5.855
   88POPS   O21 9382   1.216   4.977   5.729
   88POPS   C21 9383   1.162   4.981   5.610
   88POPS   O22 9384   1.149   5.079   5.537
   88POPS   C22 9385   1.101   4.844   5.579
   88POPS   H2R 9386   0.994   4.849   5.605
   88POPS   H2S 9387   1.148   4.770   5.648
   88POPS    C3 9388   1.332   5.204   5.710
   88POPS    HX 9389   1.366   5.286   5.778
   88POPS    HY 9390   1.257   5.249   5.642
   88POPS   O31 9391   1.446   5.149   5.642
   88POPS   C31 9392   1.481   5.211   5.531
   88POPS   O32 9393   1.438   5.319   5.494
   88POPS   C32 9394   1.584   5.128   5.456
   88POPS   H2X 9395   1.644   5.070   5.528
   88POPS   H2Y 9396   1.651   5.200   5.404
   88POPS   C23 9397   1.116   4.794   5.433
   88POPS   H3R 9398   1.041   4.845   5.369
   88POPS   H3S 9399   1.093   4.686   5.430
   88POPS   C24 9400   1.255   4.820   5.372
   88POPS   H4R 9401   1.334   4.795   5.445
   88POPS   H4S 9402   1.263   4.929   5.352
   88POPS   C25 9403   1.283   4.743   5.241
   88POPS   H5R 9404   1.291   4.634   5.260
   88POPS   H5S 9405   1.381   4.777   5.202
   88POPS   C26 9406   1.177   4.765   5.133
   88POPS   H6R 9407   1.082   4.714   5.161
   88POPS   H6S 9408   1.213   4.718   5.039
   88POPS   C27 9409   1.149   4.913   5.107
   88POPS   H7R 9410   1.247   4.965   5.093
   88POPS   H7S 9411   1.100   4.959   5.196
   88POPS   C28 9412   1.060   4.935   4.984
   88POPS   H8R 9413   0.964   4.882   5.000
   88POPS   H8S 9414   1.110   4.888   4.896
   88POPS   C29 9415   1.034   5.081   4.960
   88POPS   H91 9416   0.939   5.121   4.999
   88POPS  C210 9417   1.118   5.162   4.896
   88POPS  H101 9418   1.091   5.268   4.881
   88POPS  C211 9419   1.251   5.121   4.837
   88POPS  H11R 9420   1.301   5.044   4.898
   88POPS  H11S 9421   1.318   5.209   4.835
   88POPS  C212 9422   1.236   5.065   4.694
   88POPS  H12R 9423   1.191   4.964   4.697
   88POPS  H12S 9424   1.337   5.053   4.650
   88POPS  C213 9425   1.150   5.154   4.602
   88POPS  H13R 9426   1.135   5.254   4.648
   88POPS  H13S 9427   1.050   5.107   4.591
   88POPS  C214 9428   1.213   5.177   4.464
   88POPS  H14R 9429   1.132   5.189   4.388
   88POPS  H14S 9430   1.274   5.089   4.434
   88POPS  C215 9431   1.298   5.304   4.465
   88POPS  H15R 9432   1.375   5.294   4.545
   88POPS  H15S 9433   1.234   5.391   4.491
   88POPS  C216 9434   1.365   5.331   4.331
   88POPS  H16R 9435   1.288   5.333   4.251
   88POPS  H16S 9436   1.433   5.247   4.308
   88POPS  C217 9437   1.442   5.464   4.327
   88POPS  H17R 9438   1.366   5.544   4.321
   88POPS  H17S 9439   1.502   5.470   4.233
   88POPS  C218 9440   1.531   5.494   4.447
   88POPS  H18R 9441   1.573   5.596   4.440
   88POPS  H18S 9442   1.616   5.422   4.453
   88POPS  H18T 9443   1.475   5.489   4.543
   88POPS   C33 9444   1.516   5.033   5.354
   88POPS   H3X 9445   1.418   5.073   5.322
   88POPS   H3Y 9446   1.499   4.936   5.405
   88POPS   C34 9447   1.600   5.011   5.228
   88POPS   H4X 9448   1.561   4.924   5.171
   88POPS   H4Y 9449   1.704   4.986   5.259
   88POPS   C35 9450   1.601   5.134   5.135
   88POPS   H5X 9451   1.598   5.227   5.195
   88POPS   H5Y 9452   1.511   5.132   5.071
   88POPS   C36 9453   1.729   5.136   5.051
   88POPS   H6X 9454   1.737   5.041   4.994
   88POPS   H6Y 9455   1.813   5.139   5.123
   88POPS   C37 9456   1.746   5.256   4.956
   88POPS   H7X 9457   1.841   5.242   4.900
   88POPS   H7Y 9458   1.756   5.348   5.016
   88POPS   C38 9459   1.632   5.274   4.855
   88POPS   H8X 9460   1.659   5.355   4.783
   88POPS   H8Y 9461   1.543   5.309   4.911
   88POPS   C39 9462   1.593   5.147   4.778
   88POPS   H9X 9463   1.500   5.170   4.721
   88POPS   H9Y 9464   1.567   5.066   4.849
   88POPS  C310 9465   1.696   5.095   4.676
   88POPS  H10X 9466   1.668   4.990   4.651
   88POPS  H10Y 9467   1.798   5.093   4.720
   88POPS  C311 9468   1.692   5.177   4.547
   88POPS  H11X 9469   1.736   5.277   4.564
   88POPS  H11Y 9470   1.585   5.192   4.523
   88POPS  C312 9471   1.756   5.113   4.422
   88POPS  H12X 9472   1.750   5.002   4.429
   88POPS  H12Y 9473   1.863   5.142   4.416
   88POPS  C313 9474   1.679   5.159   4.297
   88POPS  H13X 9475   1.656   5.267   4.312
   88POPS  H13Y 9476   1.583   5.104   4.293
   88POPS  C314 9477   1.749   5.149   4.162
   88POPS  H14X 9478   1.852   5.191   4.169
   88POPS  H14Y 9479   1.693   5.214   4.091
   88POPS  C315 9480   1.750   5.008   4.102
   88POPS  H15X 9481   1.649   4.964   4.113
   88POPS  H15Y 9482   1.819   4.943   4.160
   88POPS  C316 9483   1.789   5.009   3.954
   88POPS  H16X 9484   1.789   4.906   3.912
   88POPS  H16Y 9485   1.891   5.053   3.941
   88POPS  H16Z 9486   1.718   5.071   3.895
   89POPS     N 9487   2.454   6.307   6.064
   89POPS   HN1 9488   2.537   6.292   6.003
   89POPS   HN2 9489   2.376   6.246   6.032
   89POPS   HN3 9490   2.425   6.407   6.060
   89POPS   C12 9491   2.485   6.280   6.208
   89POPS  H12A 9492   2.567   6.211   6.212
   89POPS   C13 9493   2.368   6.213   6.285
   89POPS  O13A 9494   2.259   6.192   6.227
   89POPS  O13B 9495   2.387   6.183   6.406
   89POPS   C11 9496   2.525   6.415   6.279
   89POPS  H11A 9497   2.635   6.415   6.291
   89POPS  H11B 9498   2.482   6.416   6.381
   89POPS     P 9499   2.493   6.675   6.278
   89POPS   O13 9500   2.601   6.671   6.379
   89POPS   O14 9501   2.359   6.713   6.329
   89POPS   O12 9502   2.483   6.532   6.206
   89POPS   O11 9503   2.538   6.774   6.162
   89POPS    C1 9504   2.610   6.725   6.047
   89POPS    HA 9505   2.553   6.646   5.993
   89POPS    HB 9506   2.708   6.684   6.077
   89POPS    C2 9507   2.636   6.839   5.943
   89POPS    HS 9508   2.657   6.930   6.003
   89POPS   O21 9509   2.520   6.858   5.861
   89POPS   C21 9510   2.516   6.976   5.800
   89POPS   O22 9511   2.595   7.067   5.817
   89POPS   C22 9512   2.401   6.981   5.700
   89POPS   H2R 9513   2.355   7.082   5.705
   89POPS   H2S 9514   2.324   6.907   5.730
   89POPS    C3 9515   2.761   6.813   5.854
   89POPS    HX 9516   2.850   6.800   5.920
   89POPS    HY 9517   2.779   6.907   5.796
   89POPS   O31 9518   2.745   6.705   5.758
   89POPS   C31 9519   2.804   6.590   5.787
   89POPS   O32 9520   2.864   6.564   5.890
   89POPS   C32 9521   2.774   6.488   5.676
   89POPS   H2X 9522   2.671   6.511   5.639
   89POPS   H2Y 9523   2.772   6.387   5.722
   89POPS   C23 9524   2.442   6.950   5.555
   89POPS   H3R 9525   2.515   7.025   5.518
   89POPS   H3S 9526   2.494   6.852   5.550
   89POPS   C24 9527   2.318   6.946   5.465
   89POPS   H4R 9528   2.278   7.048   5.450
   89POPS   H4S 9529   2.239   6.888   5.519
   89POPS   C25 9530   2.342   6.876   5.331
   89POPS   H5R 9531   2.385   6.776   5.353
   89POPS   H5S 9532   2.244   6.861   5.282
   89POPS   C26 9533   2.435   6.954   5.237
   89POPS   H6R 9534   2.535   6.965   5.285
   89POPS   H6S 9535   2.391   7.055   5.222
   89POPS   C27 9536   2.455   6.890   5.099
   89POPS   H7R 9537   2.513   6.962   5.037
   89POPS   H7S 9538   2.356   6.877   5.052
   89POPS   C28 9539   2.532   6.757   5.104
   89POPS   H8R 9540   2.506   6.706   5.199
   89POPS   H8S 9541   2.640   6.781   5.115
   89POPS   C29 9542   2.512   6.657   4.992
   89POPS   H91 9543   2.506   6.553   5.029
   89POPS  C210 9544   2.498   6.675   4.860
   89POPS  H101 9545   2.481   6.585   4.798
   89POPS  C211 9546   2.498   6.802   4.778
   89POPS  H11R 9547   2.491   6.893   4.842
   89POPS  H11S 9548   2.412   6.805   4.709
   89POPS  C212 9549   2.627   6.814   4.696
   89POPS  H12R 9550   2.713   6.817   4.767
   89POPS  H12S 9551   2.629   6.911   4.642
   89POPS  C213 9552   2.654   6.700   4.598
   89POPS  H13R 9553   2.629   6.601   4.641
   89POPS  H13S 9554   2.763   6.698   4.579
   89POPS  C214 9555   2.582   6.719   4.465
   89POPS  H14R 9556   2.603   6.823   4.431
   89POPS  H14S 9557   2.472   6.708   4.477
   89POPS  C215 9558   2.636   6.624   4.358
   89POPS  H15R 9559   2.612   6.518   4.383
   89POPS  H15S 9560   2.746   6.632   4.361
   89POPS  C216 9561   2.589   6.659   4.217
   89POPS  H16R 9562   2.553   6.764   4.214
   89POPS  H16S 9563   2.503   6.594   4.188
   89POPS  C217 9564   2.703   6.645   4.117
   89POPS  H17R 9565   2.780   6.721   4.143
   89POPS  H17S 9566   2.666   6.670   4.015
   89POPS  C218 9567   2.769   6.507   4.115
   89POPS  H18R 9568   2.814   6.481   4.213
   89POPS  H18S 9569   2.849   6.504   4.039
   89POPS  H18T 9570   2.693   6.429   4.090
   89POPS   C33 9571   2.870   6.488   5.555
   89POPS   H3X 9572   2.962   6.430   5.578
   89POPS   H3Y 9573   2.902   6.591   5.529
   89POPS   C34 9574   2.800   6.428   5.431
   89POPS   H4X 9575   2.708   6.487   5.412
   89POPS   H4Y 9576   2.770   6.324   5.453
   89POPS   C35 9577   2.883   6.430   5.303
   89POPS   H5X 9578   2.976   6.371   5.317
   89POPS   H5Y 9579   2.914   6.534   5.279
   89POPS   C36 9580   2.804   6.371   5.185
   89POPS   H6X 9581   2.710   6.429   5.169
   89POPS   H6Y 9582   2.775   6.267   5.212
   89POPS   C37 9583   2.884   6.368   5.054
   89POPS   H7X 9584   2.987   6.336   5.078
   89POPS   H7Y 9585   2.891   6.470   5.011
   89POPS   C38 9586   2.826   6.270   4.951
   89POPS   H8X 9587   2.803   6.172   4.999
   89POPS   H8Y 9588   2.904   6.251   4.874
   89POPS   C39 9589   2.704   6.324   4.878
   89POPS   H9X 9590   2.725   6.428   4.845
   89POPS   H9Y 9591   2.617   6.328   4.948
   89POPS  C310 9592   2.670   6.240   4.755
   89POPS  H10X 9593   2.649   6.135   4.783
   89POPS  H10Y 9594   2.758   6.240   4.688
   89POPS  C311 9595   2.551   6.299   4.680
   89POPS  H11X 9596   2.561   6.410   4.680
   89POPS  H11Y 9597   2.456   6.276   4.732
   89POPS  C312 9598   2.542   6.254   4.535
   89POPS  H12X 9599   2.526   6.144   4.531
   89POPS  H12Y 9600   2.639   6.275   4.484
   89POPS  C313 9601   2.431   6.329   4.462
   89POPS  H13X 9602   2.441   6.438   4.481
   89POPS  H13Y 9603   2.332   6.297   4.504
   89POPS  C314 9604   2.433   6.303   4.311
   89POPS  H14X 9605   2.531   6.332   4.268
   89POPS  H14Y 9606   2.355   6.367   4.263
   89POPS  C315 9607   2.404   6.157   4.281
   89POPS  H15X 9608   2.320   6.123   4.345
   89POPS  H15Y 9609   2.493   6.095   4.307
   89POPS  C316 9610   2.366   6.133   4.136
   89POPS  H16X 9611   2.442   6.176   4.068
   89POPS  H16Y 9612   2.267   6.179   4.113
   89POPS  H16Z 9613   2.357   6.024   4.117
   90POPS     N 9614   0.975   5.856   6.328
   90POPS   HN1 9615   0.878   5.829   6.301
   90POPS   HN2 9616   1.031   5.772   6.350
   90POPS   HN3 9617   0.964   5.913   6.415
   90POPS   C12 9618   1.036   5.937   6.218
   90POPS  H12A 9619   1.118   5.994   6.260
   90POPS   C13 9620   0.936   6.037   6.155
   90POPS  O13A 9621   0.813   6.024   6.180
   90POPS  O13B 9622   0.980   6.129   6.081
   90POPS   C11 9623   1.092   5.841   6.108
   90POPS  H11A 9624   1.154   5.900   6.037
   90POPS  H11B 9625   1.006   5.802   6.049
   90POPS     P 9626   1.311   5.743   6.220
   90POPS   O13 9627   1.405   5.647   6.158
   90POPS   O14 9628   1.299   5.742   6.368
   90POPS   O12 9629   1.165   5.729   6.161
   90POPS   O11 9630   1.350   5.890   6.181
   90POPS    C1 9631   1.484   5.926   6.148
   90POPS    HA 9632   1.558   5.847   6.172
   90POPS    HB 9633   1.510   6.014   6.210
   90POPS    C2 9634   1.504   5.970   6.000
   90POPS    HS 9635   1.583   6.049   6.004
   90POPS   O21 9636   1.382   6.027   5.950
   90POPS   C21 9637   1.406   6.091   5.838
   90POPS   O22 9638   1.517   6.117   5.795
   90POPS   C22 9639   1.276   6.126   5.770
   90POPS   H2R 9640   1.284   6.235   5.749
   90POPS   H2S 9641   1.191   6.109   5.840
   90POPS    C3 9642   1.556   5.855   5.906
   90POPS    HX 9643   1.621   5.787   5.965
   90POPS    HY 9644   1.620   5.906   5.831
   90POPS   O31 9645   1.450   5.781   5.843
   90POPS   C31 9646   1.486   5.719   5.730
   90POPS   O32 9647   1.600   5.719   5.686
   90POPS   C32 9648   1.367   5.645   5.670
   90POPS   H2X 9649   1.275   5.670   5.728
   90POPS   H2Y 9650   1.388   5.537   5.680
   90POPS   C23 9651   1.256   6.046   5.639
   90POPS   H3R 9652   1.156   6.071   5.598
   90POPS   H3S 9653   1.256   5.937   5.660
   90POPS   C24 9654   1.360   6.080   5.532
   90POPS   H4R 9655   1.450   6.017   5.547
   90POPS   H4S 9656   1.393   6.186   5.544
   90POPS   C25 9657   1.306   6.064   5.390
   90POPS   H5R 9658   1.233   6.144   5.368
   90POPS   H5S 9659   1.251   5.967   5.384
   90POPS   C26 9660   1.413   6.064   5.281
   90POPS   H6R 9661   1.473   6.158   5.284
   90POPS   H6S 9662   1.360   6.062   5.184
   90POPS   C27 9663   1.506   5.942   5.290
   90POPS   H7R 9664   1.453   5.859   5.342
   90POPS   H7S 9665   1.593   5.968   5.353
   90POPS   C28 9666   1.555   5.889   5.154
   90POPS   H8R 9667   1.637   5.817   5.173
   90POPS   H8S 9668   1.599   5.974   5.098
   90POPS   C29 9669   1.447   5.819   5.075
   90POPS   H91 9670   1.422   5.717   5.111
   90POPS  C210 9671   1.379   5.868   4.970
   90POPS  H101 9672   1.303   5.806   4.921
   90POPS  C211 9673   1.398   6.005   4.910
   90POPS  H11R 9674   1.441   6.076   4.984
   90POPS  H11S 9675   1.299   6.047   4.881
   90POPS  C212 9676   1.490   6.006   4.787
   90POPS  H12R 9677   1.583   5.950   4.810
   90POPS  H12S 9678   1.519   6.110   4.765
   90POPS  C213 9679   1.423   5.948   4.661
   90POPS  H13R 9680   1.342   6.018   4.630
   90POPS  H13S 9681   1.376   5.850   4.684
   90POPS  C214 9682   1.521   5.929   4.545
   90POPS  H14R 9683   1.584   5.840   4.567
   90POPS  H14S 9684   1.589   6.017   4.541
   90POPS  C215 9685   1.454   5.914   4.408
   90POPS  H15R 9686   1.532   5.883   4.335
   90POPS  H15S 9687   1.414   6.013   4.377
   90POPS  C216 9688   1.339   5.813   4.401
   90POPS  H16R 9689   1.257   5.846   4.468
   90POPS  H16S 9690   1.374   5.715   4.439
   90POPS  C217 9691   1.284   5.800   4.258
   90POPS  H17R 9692   1.367   5.772   4.189
   90POPS  H17S 9693   1.249   5.901   4.227
   90POPS  C218 9694   1.168   5.701   4.241
   90POPS  H18R 9695   1.205   5.604   4.200
   90POPS  H18S 9696   1.093   5.742   4.170
   90POPS  H18T 9697   1.119   5.682   4.338
   90POPS   C33 9698   1.345   5.677   5.520
   90POPS   H3X 9699   1.439   5.658   5.465
   90POPS   H3Y 9700   1.319   5.784   5.507
   90POPS   C34 9701   1.236   5.590   5.454
   90POPS   H4X 9702   1.263   5.484   5.468
   90POPS   H4Y 9703   1.236   5.609   5.345
   90POPS   C35 9704   1.093   5.610   5.508
   90POPS   H5X 9705   1.091   5.585   5.617
   90POPS   H5Y 9706   1.026   5.538   5.456
   90POPS   C36 9707   1.034   5.751   5.489
   90POPS   H6X 9708   1.093   5.824   5.548
   90POPS   H6Y 9709   0.930   5.753   5.528
   90POPS   C37 9710   1.032   5.798   5.342
   90POPS   H7X 9711   0.977   5.724   5.280
   90POPS   H7Y 9712   1.136   5.803   5.304
   90POPS   C38 9713   0.968   5.937   5.326
   90POPS   H8X 9714   1.009   6.004   5.404
   90POPS   H8Y 9715   0.858   5.929   5.342
   90POPS   C39 9716   0.996   6.001   5.189
   90POPS   H9X 9717   1.105   6.012   5.175
   90POPS   H9Y 9718   0.952   6.103   5.188
   90POPS  C310 9719   0.939   5.922   5.070
   90POPS  H10X 9720   0.830   5.906   5.086
   90POPS  H10Y 9721   0.987   5.822   5.065
   90POPS  C311 9722   0.960   5.994   4.937
   90POPS  H11X 9723   1.069   6.007   4.920
   90POPS  H11Y 9724   0.914   6.095   4.942
   90POPS  C312 9725   0.900   5.920   4.817
   90POPS  H12X 9726   0.791   5.907   4.834
   90POPS  H12Y 9727   0.945   5.819   4.810
   90POPS  C313 9728   0.921   5.995   4.685
   90POPS  H13X 9729   0.973   6.091   4.703
   90POPS  H13Y 9730   0.821   6.019   4.641
   90POPS  C314 9731   1.001   5.913   4.583
   90POPS  H14X 9732   0.954   5.813   4.573
   90POPS  H14Y 9733   1.104   5.898   4.621
   90POPS  C315 9734   1.006   5.977   4.443
   90POPS  H15X 9735   0.903   6.004   4.411
   90POPS  H15Y 9736   1.043   5.901   4.372
   90POPS  C316 9737   1.096   6.101   4.433
   90POPS  H16X 9738   1.107   6.132   4.327
   90POPS  H16Y 9739   1.198   6.078   4.472
   90POPS  H16Z 9740   1.054   6.186   4.490
   91POPS     N 9741   2.312   0.721   6.363
   91POPS   HN1 9742   2.330   0.635   6.308
   91POPS   HN2 9743   2.342   0.710   6.462
   91POPS   HN3 9744   2.211   0.747   6.364
   91POPS   C12 9745   2.386   0.836   6.304
   91POPS  H12A 9746   2.491   0.812   6.309
   91POPS   C13 9747   2.371   0.966   6.388
   91POPS  O13A 9748   2.297   0.963   6.491
   91POPS  O13B 9749   2.435   1.069   6.355
   91POPS   C11 9750   2.341   0.850   6.155
   91POPS  H11A 9751   2.286   0.946   6.142
   91POPS  H11B 9752   2.269   0.771   6.125
   91POPS     P 9753   2.542   0.724   6.032
   91POPS   O13 9754   2.610   0.683   6.158
   91POPS   O14 9755   2.623   0.750   5.913
   91POPS   O12 9756   2.452   0.850   6.066
   91POPS   O11 9757   2.437   0.608   6.004
   91POPS    C1 9758   2.487   0.490   5.939
   91POPS    HA 9759   2.554   0.435   6.008
   91POPS    HB 9760   2.549   0.515   5.850
   91POPS    C2 9761   2.376   0.389   5.895
   91POPS    HS 9762   2.424   0.289   5.888
   91POPS   O21 9763   2.322   0.425   5.767
   91POPS   C21 9764   2.401   0.398   5.662
   91POPS   O22 9765   2.510   0.345   5.669
   91POPS   C22 9766   2.330   0.445   5.536
   91POPS   H2R 9767   2.350   0.554   5.533
   91POPS   H2S 9768   2.221   0.430   5.548
   91POPS    C3 9769   2.257   0.377   5.996
   91POPS    HX 9770   2.297   0.335   6.090
   91POPS    HY 9771   2.185   0.302   5.956
   91POPS   O31 9772   2.195   0.505   6.023
   91POPS   C31 9773   2.108   0.539   5.926
   91POPS   O32 9774   2.023   0.464   5.881
   91POPS   C32 9775   2.138   0.680   5.877
   91POPS   H2X 9776   2.241   0.708   5.907
   91POPS   H2Y 9777   2.066   0.751   5.923
   91POPS   C23 9778   2.375   0.381   5.402
   91POPS   H3R 9779   2.345   0.274   5.400
   91POPS   H3S 9780   2.485   0.386   5.390
   91POPS   C24 9781   2.308   0.455   5.285
   91POPS   H4R 9782   2.364   0.549   5.266
   91POPS   H4S 9783   2.204   0.483   5.313
   91POPS   C25 9784   2.300   0.378   5.152
   91POPS   H5R 9785   2.226   0.295   5.163
   91POPS   H5S 9786   2.399   0.334   5.129
   91POPS   C26 9787   2.257   0.471   5.038
   91POPS   H6R 9788   2.338   0.545   5.021
   91POPS   H6S 9789   2.167   0.528   5.070
   91POPS   C27 9790   2.223   0.402   4.905
   91POPS   H7R 9791   2.210   0.480   4.827
   91POPS   H7S 9792   2.124   0.352   4.916
   91POPS   C28 9793   2.326   0.298   4.858
   91POPS   H8R 9794   2.287   0.251   4.765
   91POPS   H8S 9795   2.333   0.216   4.933
   91POPS   C29 9796   2.462   0.356   4.832
   91POPS   H91 9797   2.537   0.339   4.910
   91POPS  C210 9798   2.494   0.427   4.722
   91POPS  H101 9799   2.597   0.466   4.714
   91POPS  C211 9800   2.403   0.461   4.607
   91POPS  H11R 9801   2.385   0.571   4.608
   91POPS  H11S 9802   2.303   0.414   4.615
   91POPS  C212 9803   2.465   0.425   4.471
   91POPS  H12R 9804   2.571   0.458   4.470
   91POPS  H12S 9805   2.413   0.483   4.392
   91POPS  C213 9806   2.458   0.275   4.437
   91POPS  H13R 9807   2.491   0.219   4.527
   91POPS  H13S 9808   2.529   0.250   4.356
   91POPS  C214 9809   2.318   0.224   4.397
   91POPS  H14R 9810   2.240   0.273   4.460
   91POPS  H14S 9811   2.317   0.116   4.421
   91POPS  C215 9812   2.280   0.232   4.248
   91POPS  H15R 9813   2.179   0.188   4.236
   91POPS  H15S 9814   2.350   0.166   4.192
   91POPS  C216 9815   2.280   0.371   4.184
   91POPS  H16R 9816   2.257   0.361   4.075
   91POPS  H16S 9817   2.382   0.416   4.191
   91POPS  C217 9818   2.178   0.468   4.246
   91POPS  H17R 9819   2.192   0.469   4.356
   91POPS  H17S 9820   2.077   0.428   4.225
   91POPS  C218 9821   2.188   0.611   4.193
   91POPS  H18R 9822   2.171   0.613   4.083
   91POPS  H18S 9823   2.289   0.653   4.214
   91POPS  H18T 9824   2.112   0.675   4.242
   91POPS   C33 9825   2.130   0.688   5.722
   91POPS   H3X 9826   2.024   0.709   5.696
   91POPS   H3Y 9827   2.154   0.589   5.677
   91POPS   C34 9828   2.224   0.791   5.657
   91POPS   H4X 9829   2.329   0.754   5.660
   91POPS   H4Y 9830   2.220   0.885   5.716
   91POPS   C35 9831   2.181   0.819   5.512
   91POPS   H5X 9832   2.136   0.921   5.504
   91POPS   H5Y 9833   2.100   0.746   5.491
   91POPS   C36 9834   2.281   0.799   5.397
   91POPS   H6X 9835   2.221   0.792   5.304
   91POPS   H6Y 9836   2.333   0.701   5.409
   91POPS   C37 9837   2.389   0.906   5.376
   91POPS   H7X 9838   2.449   0.916   5.469
   91POPS   H7Y 9839   2.342   1.004   5.354
   91POPS   C38 9840   2.484   0.868   5.259
   91POPS   H8X 9841   2.533   0.771   5.283
   91POPS   H8Y 9842   2.564   0.945   5.252
   91POPS   C39 9843   2.415   0.857   5.122
   91POPS   H9X 9844   2.372   0.956   5.097
   91POPS   H9Y 9845   2.331   0.784   5.126
   91POPS  C310 9846   2.509   0.812   5.009
   91POPS  H10X 9847   2.526   0.702   5.017
   91POPS  H10Y 9848   2.606   0.863   5.020
   91POPS  C311 9849   2.452   0.846   4.869
   91POPS  H11X 9850   2.446   0.956   4.864
   91POPS  H11Y 9851   2.350   0.804   4.858
   91POPS  C312 9852   2.540   0.796   4.753
   91POPS  H12X 9853   2.524   0.688   4.737
   91POPS  H12Y 9854   2.646   0.808   4.784
   91POPS  C313 9855   2.521   0.873   4.620
   91POPS  H13X 9856   2.605   0.851   4.552
   91POPS  H13Y 9857   2.526   0.982   4.644
   91POPS  C314 9858   2.390   0.846   4.544
   91POPS  H14X 9859   2.311   0.823   4.619
   91POPS  H14Y 9860   2.400   0.755   4.480
   91POPS  C315 9861   2.341   0.966   4.460
   91POPS  H15X 9862   2.358   1.058   4.519
   91POPS  H15Y 9863   2.232   0.955   4.444
   91POPS  C316 9864   2.409   0.987   4.325
   91POPS  H16X 9865   2.369   1.079   4.276
   91POPS  H16Y 9866   2.390   0.901   4.257
   91POPS  H16Z 9867   2.518   1.000   4.339
   92POPS     N 9868   0.246   4.135   6.199
   92POPS   HN1 9869   0.197   4.152   6.289
   92POPS   HN2 9870   0.231   4.206   6.126
   92POPS   HN3 9871   0.232   4.038   6.163
   92POPS   C12 9872   0.392   4.136   6.227
   92POPS  H12A 9873   0.411   4.221   6.290
   92POPS   C13 9874   0.473   4.161   6.098
   92POPS  O13A 9875   0.411   4.181   5.990
   92POPS  O13B 9876   0.598   4.168   6.110
   92POPS   C11 9877   0.431   4.003   6.299
   92POPS  H11A 9878   0.420   4.021   6.408
   92POPS  H11B 9879   0.538   3.982   6.279
   92POPS     P 9880   0.391   3.744   6.291
   92POPS   O13 9881   0.288   3.693   6.385
   92POPS   O14 9882   0.531   3.739   6.339
   92POPS   O12 9883   0.347   3.894   6.261
   92POPS   O11 9884   0.372   3.676   6.150
   92POPS    C1 9885   0.280   3.737   6.058
   92POPS    HA 9886   0.317   3.837   6.025
   92POPS    HB 9887   0.181   3.750   6.106
   92POPS    C2 9888   0.257   3.655   5.928
   92POPS    HS 9889   0.246   3.548   5.956
   92POPS   O21 9890   0.371   3.672   5.842
   92POPS   C21 9891   0.370   3.605   5.728
   92POPS   O22 9892   0.288   3.521   5.696
   92POPS   C22 9893   0.477   3.661   5.635
   92POPS   H2R 9894   0.498   3.766   5.664
   92POPS   H2S 9895   0.435   3.661   5.532
   92POPS    C3 9896   0.125   3.705   5.861
   92POPS    HX 9897   0.043   3.699   5.935
   92POPS    HY 9898   0.098   3.638   5.776
   92POPS   O31 9899   0.144   3.840   5.816
   92POPS   C31 9900   0.049   3.889   5.740
   92POPS   O32 9901  -0.071   3.868   5.754
   92POPS   C32 9902   0.112   3.975   5.632
   92POPS   H2X 9903   0.154   4.067   5.680
   92POPS   H2Y 9904   0.033   4.005   5.560
   92POPS   C23 9905   0.610   3.582   5.637
   92POPS   H3R 9906   0.595   3.483   5.587
   92POPS   H3S 9907   0.640   3.562   5.742
   92POPS   C24 9908   0.725   3.659   5.569
   92POPS   H4R 9909   0.817   3.598   5.576
   92POPS   H4S 9910   0.743   3.752   5.627
   92POPS   C25 9911   0.702   3.698   5.421
   92POPS   H5R 9912   0.791   3.754   5.387
   92POPS   H5S 9913   0.614   3.765   5.412
   92POPS   C26 9914   0.683   3.576   5.329
   92POPS   H6R 9915   0.589   3.524   5.357
   92POPS   H6S 9916   0.767   3.507   5.348
   92POPS   C27 9917   0.680   3.610   5.179
   92POPS   H7R 9918   0.730   3.528   5.123
   92POPS   H7S 9919   0.741   3.701   5.162
   92POPS   C28 9920   0.539   3.631   5.120
   92POPS   H8R 9921   0.551   3.666   5.015
   92POPS   H8S 9922   0.488   3.712   5.177
   92POPS   C29 9923   0.457   3.504   5.121
   92POPS   H91 9924   0.518   3.412   5.117
   92POPS  C210 9925   0.324   3.490   5.116
   92POPS  H101 9926   0.281   3.388   5.117
   92POPS  C211 9927   0.223   3.601   5.108
   92POPS  H11R 9928   0.250   3.685   5.176
   92POPS  H11S 9929   0.123   3.565   5.137
   92POPS  C212 9930   0.217   3.651   4.962
   92POPS  H12R 9931   0.212   3.565   4.893
   92POPS  H12S 9932   0.312   3.705   4.940
   92POPS  C213 9933   0.099   3.745   4.934
   92POPS  H13R 9934   0.138   3.834   4.880
   92POPS  H13S 9935   0.056   3.780   5.030
   92POPS  C214 9936  -0.012   3.685   4.846
   92POPS  H14R 9937  -0.090   3.763   4.831
   92POPS  H14S 9938  -0.059   3.600   4.900
   92POPS  C215 9939   0.034   3.636   4.707
   92POPS  H15R 9940  -0.056   3.614   4.646
   92POPS  H15S 9941   0.088   3.539   4.720
   92POPS  C216 9942   0.126   3.732   4.629
   92POPS  H16R 9943   0.147   3.687   4.530
   92POPS  H16S 9944   0.223   3.742   4.682
   92POPS  C217 9945   0.067   3.871   4.604
   92POPS  H17R 9946   0.059   3.926   4.700
   92POPS  H17S 9947  -0.035   3.860   4.563
   92POPS  C218 9948   0.152   3.952   4.506
   92POPS  H18R 9949   0.159   3.900   4.408
   92POPS  H18S 9950   0.256   3.965   4.545
   92POPS  H18T 9951   0.108   4.053   4.490
   92POPS   C33 9952   0.226   3.899   5.560
   92POPS   H3X 9953   0.185   3.815   5.501
   92POPS   H3Y 9954   0.295   3.856   5.637
   92POPS   C34 9955   0.316   3.986   5.471
   92POPS   H4X 9956   0.395   3.923   5.425
   92POPS   H4Y 9957   0.367   4.060   5.536
   92POPS   C35 9958   0.241   4.061   5.362
   92POPS   H5X 9959   0.308   4.142   5.326
   92POPS   H5Y 9960   0.152   4.111   5.407
   92POPS   C36 9961   0.193   3.975   5.243
   92POPS   H6X 9962   0.099   4.020   5.205
   92POPS   H6Y 9963   0.167   3.873   5.278
   92POPS   C37 9964   0.290   3.967   5.123
   92POPS   H7X 9965   0.230   3.934   5.036
   92POPS   H7Y 9966   0.368   3.890   5.141
   92POPS   C38 9967   0.358   4.098   5.082
   92POPS   H8X 9968   0.457   4.107   5.132
   92POPS   H8Y 9969   0.295   4.182   5.120
   92POPS   C39 9970   0.369   4.123   4.931
   92POPS   H9X 9971   0.266   4.122   4.888
   92POPS   H9Y 9972   0.428   4.043   4.882
   92POPS  C310 9973   0.432   4.261   4.908
   92POPS  H10X 9974   0.542   4.254   4.921
   92POPS  H10Y 9975   0.397   4.327   4.991
   92POPS  C311 9976   0.399   4.333   4.777
   92POPS  H11X 9977   0.479   4.408   4.758
   92POPS  H11Y 9978   0.305   4.392   4.790
   92POPS  C312 9979   0.384   4.243   4.654
   92POPS  H12X 9980   0.288   4.188   4.660
   92POPS  H12Y 9981   0.465   4.167   4.652
   92POPS  C313 9982   0.388   4.324   4.524
   92POPS  H13X 9983   0.485   4.378   4.515
   92POPS  H13Y 9984   0.308   4.401   4.527
   92POPS  C314 9985   0.368   4.237   4.400
   92POPS  H14X 9986   0.276   4.176   4.415
   92POPS  H14Y 9987   0.453   4.167   4.388
   92POPS  C315 9988   0.348   4.318   4.272
   92POPS  H15X 9989   0.441   4.373   4.247
   92POPS  H15Y 9990   0.270   4.395   4.290
   92POPS  C316 9991   0.302   4.232   4.154
   92POPS  H16X 9992   0.375   4.151   4.135
   92POPS  H16Y 9993   0.293   4.293   4.061
   92POPS  H16Z 9994   0.203   4.186   4.175
   93POPS     N 9995   4.215   0.097   6.167
   93POPS   HN1 9996   4.278   0.017   6.188
   93POPS   HN2 9997   4.198   0.098   6.065
   93POPS   HN3 9998   4.258   0.187   6.197
   93POPS   C12 9999   4.085   0.076   6.238
   93POPS  H12A10000   4.104   0.078   6.344
   93POPS   C1310001   4.022  -0.062   6.211
   93POPS  O13A10002   4.090  -0.147   6.148
   93POPS  O13B10003   3.912  -0.089   6.266
   93POPS   C1110004   3.990   0.192   6.202
   93POPS  H11A10005   3.884   0.163   6.223
   93POPS  H11B10006   3.996   0.213   6.093
   93POPS     P10007   4.003   0.452   6.242
   93POPS   O1310008   4.117   0.532   6.292
   93POPS   O1410009   3.869   0.491   6.292
   93POPS   O1210010   4.025   0.302   6.285
   93POPS   O1110011   4.007   0.444   6.085
   93POPS    C110012   4.027   0.561   6.005
   93POPS    HA10013   4.107   0.626   6.046
   93POPS    HB10014   3.933   0.619   5.999
   93POPS    C210015   4.067   0.525   5.859
   93POPS    HS10016   4.061   0.619   5.800
   93POPS   O2110017   3.982   0.422   5.805
   93POPS   C2110018   3.874   0.467   5.743
   93POPS   O2210019   3.836   0.582   5.740
   93POPS   C2210020   3.807   0.348   5.672
   93POPS   H2R10021   3.733   0.307   5.744
   93POPS   H2S10022   3.883   0.271   5.650
   93POPS    C310023   4.213   0.474   5.846
   93POPS    HX10024   4.220   0.380   5.904
   93POPS    HY10025   4.284   0.546   5.891
   93POPS   O3110026   4.245   0.446   5.707
   93POPS   C3110027   4.259   0.556   5.633
   93POPS   O3210028   4.268   0.669   5.678
   93POPS   C3210029   4.256   0.521   5.485
   93POPS   H2X10030   4.199   0.427   5.470
   93POPS   H2Y10031   4.362   0.500   5.456
   93POPS   C2310032   3.736   0.391   5.542
   93POPS   H3R10033   3.675   0.482   5.560
   93POPS   H3S10034   3.666   0.309   5.512
   93POPS   C2410035   3.830   0.412   5.423
   93POPS   H4R10036   3.870   0.314   5.390
   93POPS   H4S10037   3.916   0.475   5.454
   93POPS   C2510038   3.758   0.482   5.306
   93POPS   H5R10039   3.798   0.585   5.296
   93POPS   H5S10040   3.650   0.491   5.329
   93POPS   C2610041   3.773   0.409   5.172
   93POPS   H6R10042   3.719   0.312   5.176
   93POPS   H6S10043   3.880   0.385   5.154
   93POPS   C2710044   3.720   0.494   5.055
   93POPS   H7R10045   3.677   0.587   5.097
   93POPS   H7S10046   3.637   0.441   5.003
   93POPS   C2810047   3.827   0.532   4.953
   93POPS   H8R10048   3.915   0.575   5.005
   93POPS   H8S10049   3.784   0.613   4.890
   93POPS   C2910050   3.866   0.415   4.866
   93POPS   H9110051   3.854   0.315   4.910
   93POPS  C21010052   3.913   0.429   4.741
   93POPS  H10110053   3.938   0.339   4.682
   93POPS  C21110054   3.933   0.562   4.673
   93POPS  H11R10055   4.026   0.559   4.612
   93POPS  H11S10056   3.949   0.643   4.747
   93POPS  C21210057   3.815   0.604   4.582
   93POPS  H12R10058   3.830   0.710   4.552
   93POPS  H12S10059   3.720   0.599   4.640
   93POPS  C21310060   3.805   0.518   4.456
   93POPS  H13R10061   3.814   0.411   4.485
   93POPS  H13S10062   3.890   0.544   4.390
   93POPS  C21410063   3.675   0.536   4.376
   93POPS  H14R10064   3.670   0.641   4.342
   93POPS  H14S10065   3.588   0.516   4.442
   93POPS  C21510066   3.670   0.443   4.254
   93POPS  H15R10067   3.765   0.452   4.197
   93POPS  H15S10068   3.588   0.477   4.187
   93POPS  C21610069   3.644   0.295   4.285
   93POPS  H16R10070   3.541   0.286   4.326
   93POPS  H16S10071   3.714   0.258   4.362
   93POPS  C21710072   3.657   0.207   4.159
   93POPS  H17R10073   3.764   0.182   4.144
   93POPS  H17S10074   3.625   0.266   4.071
   93POPS  C21810075   3.574   0.079   4.165
   93POPS  H18R10076   3.603   0.017   4.253
   93POPS  H18S10077   3.590   0.018   4.073
   93POPS  H18T10078   3.466   0.103   4.173
   93POPS   C3310079   4.195   0.634   5.398
   93POPS   H3X10080   4.227   0.733   5.437
   93POPS   H3Y10081   4.084   0.630   5.409
   93POPS   C3410082   4.231   0.633   5.248
   93POPS   H4X10083   4.321   0.697   5.233
   93POPS   H4Y10084   4.150   0.681   5.191
   93POPS   C3510085   4.262   0.495   5.187
   93POPS   H5X10086   4.338   0.441   5.248
   93POPS   H5Y10087   4.306   0.509   5.086
   93POPS   C3610088   4.135   0.411   5.175
   93POPS   H6X10089   4.078   0.448   5.086
   93POPS   H6Y10090   4.072   0.427   5.264
   93POPS   C3710091   4.160   0.261   5.161
   93POPS   H7X10092   4.062   0.211   5.151
   93POPS   H7Y10093   4.208   0.222   5.253
   93POPS   C3810094   4.247   0.224   5.040
   93POPS   H8X10095   4.352   0.256   5.057
   93POPS   H8Y10096   4.209   0.278   4.951
   93POPS   C3910097   4.241   0.073   5.016
   93POPS   H9X10098   4.134   0.047   4.998
   93POPS   H9Y10099   4.275   0.020   5.107
   93POPS  C31010100   4.320   0.024   4.895
   93POPS  H10X10101   4.316  -0.087   4.894
   93POPS  H10Y10102   4.427   0.054   4.904
   93POPS  C31110103   4.262   0.075   4.763
   93POPS  H11X10104   4.273   0.185   4.759
   93POPS  H11Y10105   4.153   0.053   4.759
   93POPS  C31210106   4.330   0.013   4.642
   93POPS  H12X10107   4.317  -0.097   4.641
   93POPS  H12Y10108   4.439   0.035   4.650
   93POPS  C31310109   4.276   0.072   4.513
   93POPS  H13X10110   4.277   0.183   4.525
   93POPS  H13Y10111   4.171   0.040   4.497
   93POPS  C31410112   4.361   0.039   4.390
   93POPS  H14X10113   4.368  -0.071   4.375
   93POPS  H14Y10114   4.463   0.079   4.406
   93POPS  C31510115   4.304   0.107   4.266
   93POPS  H15X10116   4.272   0.208   4.299
   93POPS  H15Y10117   4.215   0.051   4.231
   93POPS  C31610118   4.403   0.132   4.154
   93POPS  H16X10119   4.437   0.036   4.109
   93POPS  H16Y10120   4.490   0.187   4.194
   93POPS  H16Z10121   4.357   0.195   4.076
   94POPS     N10122   0.332   2.403   6.254
   94POPS   HN110123   0.432   2.430   6.260
   94POPS   HN210124   0.285   2.404   6.347
   94POPS   HN310125   0.329   2.308   6.210
   94POPS   C1210126   0.272   2.501   6.158
   94POPS  H12A10127   0.188   2.455   6.109
   94POPS   C1310128   0.378   2.533   6.049
   94POPS  O13A10129   0.495   2.487   6.064
   94POPS  O13B10130   0.342   2.601   5.950
   94POPS   C1110131   0.227   2.631   6.235
   94POPS  H11A10132   0.292   2.715   6.203
   94POPS  H11B10133   0.242   2.621   6.344
   94POPS     P10134  -0.034   2.601   6.273
   94POPS   O1310135  -0.104   2.699   6.358
   94POPS   O1410136   0.007   2.475   6.341
   94POPS   O1210137   0.091   2.668   6.207
   94POPS   O1110138  -0.131   2.565   6.153
   94POPS    C110139  -0.117   2.633   6.027
   94POPS    HA10140  -0.012   2.657   6.001
   94POPS    HB10141  -0.174   2.728   6.029
   94POPS    C210142  -0.169   2.547   5.908
   94POPS    HS10143  -0.272   2.516   5.933
   94POPS   O2110144  -0.080   2.435   5.892
   94POPS   C2110145  -0.134   2.329   5.835
   94POPS   O2210146  -0.254   2.312   5.818
   94POPS   C2210147  -0.026   2.227   5.800
   94POPS   H2R10148  -0.076   2.139   5.755
   94POPS   H2S10149   0.021   2.196   5.896
   94POPS    C310150  -0.171   2.631   5.777
   94POPS    HX10151  -0.241   2.717   5.789
   94POPS    HY10152  -0.210   2.566   5.696
   94POPS   O3110153  -0.038   2.679   5.752
   94POPS   C3110154  -0.007   2.694   5.624
   94POPS   O3210155  -0.087   2.711   5.534
   94POPS   C3210156   0.142   2.670   5.608
   94POPS   H2X10157   0.174   2.595   5.683
   94POPS   H2Y10158   0.196   2.765   5.631
   94POPS   C2310159   0.083   2.280   5.704
   94POPS   H3R10160   0.153   2.197   5.682
   94POPS   H3S10161   0.142   2.360   5.753
   94POPS   C2410162   0.029   2.333   5.570
   94POPS   H4R10163   0.116   2.344   5.501
   94POPS   H4S10164  -0.016   2.433   5.585
   94POPS   C2510165  -0.074   2.244   5.501
   94POPS   H5R10166  -0.170   2.242   5.557
   94POPS   H5S10167  -0.033   2.141   5.500
   94POPS   C2610168  -0.102   2.285   5.355
   94POPS   H6R10169  -0.158   2.202   5.307
   94POPS   H6S10170  -0.006   2.297   5.300
   94POPS   C2710171  -0.184   2.412   5.338
   94POPS   H7R10172  -0.124   2.499   5.371
   94POPS   H7S10173  -0.274   2.407   5.403
   94POPS   C2810174  -0.228   2.430   5.191
   94POPS   H8R10175  -0.298   2.348   5.163
   94POPS   H8S10176  -0.138   2.415   5.127
   94POPS   C2910177  -0.289   2.565   5.164
   94POPS   H9110178  -0.399   2.570   5.170
   94POPS  C21010179  -0.218   2.675   5.135
   94POPS  H10110180  -0.272   2.770   5.115
   94POPS  C21110181  -0.068   2.683   5.124
   94POPS  H11R10182  -0.018   2.589   5.158
   94POPS  H11S10183  -0.031   2.763   5.191
   94POPS  C21210184  -0.020   2.713   4.981
   94POPS  H12R10185   0.091   2.720   4.983
   94POPS  H12S10186  -0.059   2.813   4.950
   94POPS  C21310187  -0.056   2.610   4.874
   94POPS  H13R10188  -0.165   2.586   4.878
   94POPS  H13S10189   0.001   2.516   4.892
   94POPS  C21410190  -0.022   2.666   4.735
   94POPS  H14R10191   0.085   2.696   4.736
   94POPS  H14S10192  -0.083   2.758   4.720
   94POPS  C21510193  -0.047   2.572   4.617
   94POPS  H15R10194  -0.148   2.526   4.625
   94POPS  H15S10195   0.028   2.490   4.620
   94POPS  C21610196  -0.037   2.645   4.481
   94POPS  H16R10197  -0.129   2.705   4.466
   94POPS  H16S10198  -0.032   2.570   4.399
   94POPS  C21710199   0.084   2.739   4.473
   94POPS  H17R10200   0.176   2.682   4.499
   94POPS  H17S10201   0.072   2.819   4.549
   94POPS  C21810202   0.105   2.807   4.339
   94POPS  H18R10203   0.202   2.861   4.338
   94POPS  H18S10204   0.024   2.882   4.321
   94POPS  H18T10205   0.105   2.734   4.255
   94POPS   C3310206   0.176   2.618   5.467
   94POPS   H3X10207   0.174   2.704   5.396
   94POPS   H3Y10208   0.100   2.547   5.429
   94POPS   C3410209   0.314   2.549   5.462
   94POPS   H4X10210   0.305   2.443   5.497
   94POPS   H4Y10211   0.383   2.598   5.533
   94POPS   C3510212   0.374   2.552   5.321
   94POPS   H5X10213   0.478   2.511   5.326
   94POPS   H5Y10214   0.381   2.656   5.285
   94POPS   C3610215   0.292   2.470   5.223
   94POPS   H6X10216   0.187   2.508   5.217
   94POPS   H6Y10217   0.287   2.366   5.263
   94POPS   C3710218   0.352   2.466   5.082
   94POPS   H7X10219   0.462   2.456   5.093
   94POPS   H7Y10220   0.330   2.560   5.027
   94POPS   C3810221   0.294   2.346   5.009
   94POPS   H8X10222   0.186   2.366   4.999
   94POPS   H8Y10223   0.309   2.258   5.075
   94POPS   C3910224   0.350   2.306   4.872
   94POPS   H9X10225   0.296   2.214   4.842
   94POPS   H9Y10226   0.458   2.281   4.879
   94POPS  C31010227   0.329   2.407   4.760
   94POPS  H10X10228   0.222   2.437   4.758
   94POPS  H10Y10229   0.390   2.498   4.777
   94POPS  C31110230   0.364   2.343   4.625
   94POPS  H11X10231   0.299   2.254   4.612
   94POPS  H11Y10232   0.470   2.307   4.625
   94POPS  C31210233   0.341   2.439   4.508
   94POPS  H12X10234   0.430   2.503   4.493
   94POPS  H12Y10235   0.256   2.504   4.538
   94POPS  C31310236   0.300   2.368   4.379
   94POPS  H13X10237   0.215   2.301   4.399
   94POPS  H13Y10238   0.385   2.306   4.343
   94POPS  C31410239   0.259   2.469   4.271
   94POPS  H14X10240   0.346   2.535   4.247
   94POPS  H14Y10241   0.179   2.534   4.312
   94POPS  C31510242   0.207   2.405   4.142
   94POPS  H15X10243   0.113   2.350   4.165
   94POPS  H15Y10244   0.280   2.330   4.104
   94POPS  C31610245   0.179   2.509   4.034
   94POPS  H16X10246   0.273   2.564   4.008
   94POPS  H16Y10247   0.105   2.583   4.070
   94POPS  H16Z10248   0.141   2.461   3.941
   95POPS     N10249   7.365   2.179   6.109
   95POPS   HN110250   7.362   2.240   6.024
   95POPS   HN210251   7.399   2.233   6.190
   95POPS   HN310252   7.427   2.097   6.096
   95POPS   C1210253   7.228   2.135   6.150
   95POPS  H12A10254   7.173   2.108   6.061
   95POPS   C1310255   7.153   2.254   6.217
   95POPS  O13A10256   7.214   2.362   6.237
   95POPS  O13B10257   7.031   2.242   6.249
   95POPS   C1110258   7.239   2.006   6.243
   95POPS  H11A10259   7.197   1.920   6.187
   95POPS  H11B10260   7.168   2.020   6.327
   95POPS     P10261   7.492   1.898   6.235
   95POPS   O1310262   7.591   1.880   6.344
   95POPS   O1410263   7.535   1.979   6.118
   95POPS   O1210264   7.369   1.977   6.297
   95POPS   O1110265   7.438   1.757   6.187
   95POPS    C110266   7.345   1.741   6.079
   95POPS    HA10267   7.313   1.839   6.036
   95POPS    HB10268   7.254   1.690   6.119
   95POPS    C210269   7.395   1.659   5.957
   95POPS    HS10270   7.438   1.565   5.999
   95POPS   O2110271   7.500   1.734   5.891
   95POPS   C2110272   7.543   1.692   5.774
   95POPS   O2210273   7.505   1.595   5.712
   95POPS   C2210274   7.648   1.790   5.720
   95POPS   H2R10275   7.744   1.771   5.771
   95POPS   H2S10276   7.613   1.893   5.743
   95POPS    C310277   7.273   1.617   5.867
   95POPS    HX10278   7.190   1.581   5.931
   95POPS    HY10279   7.302   1.528   5.807
   95POPS   O3110280   7.231   1.722   5.777
   95POPS   C3110281   7.144   1.811   5.822
   95POPS   O3210282   7.091   1.810   5.932
   95POPS   C3210283   7.123   1.923   5.720
   95POPS   H2X10284   7.058   1.997   5.771
   95POPS   H2Y10285   7.065   1.884   5.634
   95POPS   C2310286   7.663   1.771   5.567
   95POPS   H3R10287   7.561   1.781   5.523
   95POPS   H3S10288   7.696   1.668   5.543
   95POPS   C2410289   7.749   1.874   5.492
   95POPS   H4R10290   7.848   1.828   5.468
   95POPS   H4S10291   7.768   1.962   5.556
   95POPS   C2510292   7.678   1.914   5.362
   95POPS   H5R10293   7.586   1.970   5.388
   95POPS   H5S10294   7.649   1.821   5.309
   95POPS   C2610295   7.758   1.999   5.263
   95POPS   H6R10296   7.855   1.947   5.247
   95POPS   H6S10297   7.784   2.098   5.307
   95POPS   C2710298   7.685   2.014   5.129
   95POPS   H7R10299   7.588   2.065   5.146
   95POPS   H7S10300   7.661   1.913   5.091
   95POPS   C2810301   7.769   2.088   5.024
   95POPS   H8R10302   7.807   2.014   4.951
   95POPS   H8S10303   7.859   2.126   5.077
   95POPS   C2910304   7.704   2.206   4.956
   95POPS   H9110305   7.692   2.295   5.020
   95POPS  C21010306   7.660   2.212   4.829
   95POPS  H10110307   7.612   2.305   4.793
   95POPS  C21110308   7.666   2.100   4.730
   95POPS  H11R10309   7.761   2.043   4.738
   95POPS  H11S10310   7.658   2.136   4.626
   95POPS  C21210311   7.549   2.006   4.763
   95POPS  H12R10312   7.560   1.970   4.868
   95POPS  H12S10313   7.554   1.917   4.697
   95POPS  C21310314   7.410   2.071   4.750
   95POPS  H13R10315   7.403   2.167   4.806
   95POPS  H13S10316   7.332   2.005   4.794
   95POPS  C21410317   7.374   2.091   4.603
   95POPS  H14R10318   7.396   1.998   4.547
   95POPS  H14S10319   7.440   2.171   4.562
   95POPS  C21510320   7.227   2.127   4.582
   95POPS  H15R10321   7.205   2.223   4.633
   95POPS  H15S10322   7.164   2.049   4.631
   95POPS  C21610323   7.190   2.135   4.434
   95POPS  H16R10324   7.085   2.171   4.424
   95POPS  H16S10325   7.194   2.032   4.391
   95POPS  C21710326   7.283   2.226   4.351
   95POPS  H17R10327   7.243   2.231   4.247
   95POPS  H17S10328   7.383   2.179   4.345
   95POPS  C21810329   7.297   2.368   4.407
   95POPS  H18R10330   7.358   2.431   4.338
   95POPS  H18S10331   7.348   2.367   4.506
   95POPS  H18T10332   7.197   2.414   4.421
   95POPS   C3310333   7.252   1.995   5.672
   95POPS   H3X10334   7.311   2.030   5.760
   95POPS   H3Y10335   7.220   2.086   5.616
   95POPS   C3410336   7.345   1.914   5.579
   95POPS   H4X10337   7.401   1.844   5.644
   95POPS   H4Y10338   7.417   1.983   5.531
   95POPS   C3510339   7.274   1.827   5.475
   95POPS   H5X10340   7.187   1.888   5.443
   95POPS   H5Y10341   7.236   1.734   5.522
   95POPS   C3610342   7.351   1.792   5.346
   95POPS   H6X10343   7.420   1.875   5.322
   95POPS   H6Y10344   7.273   1.798   5.267
   95POPS   C3710345   7.422   1.655   5.326
   95POPS   H7X10346   7.477   1.628   5.419
   95POPS   H7Y10347   7.498   1.670   5.246
   95POPS   C3810348   7.343   1.528   5.283
   95POPS   H8X10349   7.294   1.493   5.377
   95POPS   H8Y10350   7.416   1.449   5.253
   95POPS   C3910351   7.231   1.536   5.176
   95POPS   H9X10352   7.211   1.643   5.157
   95POPS   H9Y10353   7.139   1.493   5.221
   95POPS  C31010354   7.244   1.470   5.036
   95POPS  H10X10355   7.239   1.361   5.053
   95POPS  H10Y10356   7.343   1.495   4.992
   95POPS  C31110357   7.128   1.514   4.941
   95POPS  H11X10358   7.106   1.620   4.964
   95POPS  H11Y10359   7.035   1.458   4.967
   95POPS  C31210360   7.145   1.512   4.787
   95POPS  H12X10361   7.113   1.412   4.750
   95POPS  H12Y10362   7.253   1.519   4.762
   95POPS  C31310363   7.073   1.622   4.705
   95POPS  H13X10364   7.056   1.715   4.765
   95POPS  H13Y10365   6.971   1.587   4.680
   95POPS  C31410366   7.147   1.663   4.576
   95POPS  H14X10367   7.210   1.578   4.543
   95POPS  H14Y10368   7.215   1.748   4.600
   95POPS  C31510369   7.057   1.703   4.457
   95POPS  H15X10370   6.999   1.613   4.426
   95POPS  H15Y10371   7.123   1.728   4.371
   95POPS  C31610372   6.961   1.820   4.480
   95POPS  H16X10373   6.888   1.796   4.560
   95POPS  H16Y10374   6.904   1.841   4.387
   95POPS  H16Z10375   7.017   1.912   4.507
   96POPS     N10376   7.261   6.291   6.278
   96POPS   HN110377   7.274   6.351   6.362
   96POPS   HN210378   7.348   6.298   6.221
   96POPS   HN310379   7.179   6.319   6.221
   96POPS   C1210380   7.247   6.147   6.318
   96POPS  H12A10381   7.178   6.141   6.400
   96POPS   C1310382   7.378   6.082   6.368
   96POPS  O13A10383   7.482   6.154   6.377
   96POPS  O13B10384   7.375   5.963   6.409
   96POPS   C1110385   7.183   6.072   6.198
   96POPS  H11A10386   7.199   5.963   6.211
   96POPS  H11B10387   7.232   6.100   6.102
   96POPS     P10388   6.958   6.164   6.087
   96POPS   O1310389   6.827   6.192   6.149
   96POPS   O1410390   6.959   6.076   5.968
   96POPS   O1210391   7.043   6.097   6.200
   96POPS   O1110392   7.040   6.299   6.063
   96POPS    C110393   6.983   6.423   6.107
   96POPS    HA10394   7.003   6.439   6.215
   96POPS    HB10395   6.873   6.425   6.094
   96POPS    C210396   7.031   6.552   6.031
   96POPS    HS10397   6.963   6.635   6.057
   96POPS   O2110398   7.036   6.534   5.889
   96POPS   C2110399   6.919   6.536   5.827
   96POPS   O2210400   6.810   6.522   5.879
   96POPS   C2210401   6.940   6.573   5.681
   96POPS   H2R10402   6.974   6.679   5.678
   96POPS   H2S10403   6.841   6.569   5.630
   96POPS    C310404   7.173   6.596   6.077
   96POPS    HX10405   7.167   6.621   6.185
   96POPS    HY10406   7.200   6.690   6.024
   96POPS   O3110407   7.270   6.490   6.059
   96POPS   C3110408   7.324   6.488   5.937
   96POPS   O3210409   7.327   6.582   5.860
   96POPS   C3210410   7.385   6.352   5.910
   96POPS   H2X10411   7.369   6.285   5.998
   96POPS   H2Y10412   7.494   6.366   5.895
   96POPS   C2310413   7.044   6.488   5.605
   96POPS   H3R10414   7.139   6.482   5.661
   96POPS   H3S10415   7.067   6.541   5.510
   96POPS   C2410416   6.992   6.349   5.568
   96POPS   H4R10417   6.888   6.355   5.530
   96POPS   H4S10418   6.990   6.286   5.660
   96POPS   C2510419   7.080   6.280   5.462
   96POPS   H5R10420   7.048   6.174   5.451
   96POPS   H5S10421   7.184   6.280   5.500
   96POPS   C2610422   7.082   6.345   5.322
   96POPS   H6R10423   7.145   6.282   5.255
   96POPS   H6S10424   7.133   6.444   5.329
   96POPS   C2710425   6.945   6.365   5.257
   96POPS   H7R10426   6.960   6.411   5.157
   96POPS   H7S10427   6.887   6.437   5.318
   96POPS   C2810428   6.861   6.236   5.240
   96POPS   H8R10429   6.766   6.264   5.190
   96POPS   H8S10430   6.834   6.198   5.341
   96POPS   C2910431   6.934   6.129   5.162
   96POPS   H9110432   6.983   6.053   5.223
   96POPS  C21010433   6.944   6.123   5.028
   96POPS  H10110434   7.001   6.040   4.983
   96POPS  C21110435   6.887   6.221   4.929
   96POPS  H11R10436   6.842   6.309   4.979
   96POPS  H11S10437   6.805   6.173   4.872
   96POPS  C21210438   6.992   6.273   4.829
   96POPS  H12R10439   7.037   6.188   4.773
   96POPS  H12S10440   7.072   6.328   4.882
   96POPS  C21310441   6.927   6.369   4.729
   96POPS  H13R10442   6.899   6.461   4.784
   96POPS  H13S10443   6.833   6.320   4.693
   96POPS  C21410444   7.012   6.409   4.608
   96POPS  H14R10445   7.120   6.415   4.635
   96POPS  H14S10446   6.980   6.512   4.579
   96POPS  C21510447   6.989   6.324   4.483
   96POPS  H15R10448   6.882   6.298   4.473
   96POPS  H15S10449   7.044   6.227   4.495
   96POPS  C21610450   7.033   6.398   4.355
   96POPS  H16R10451   7.137   6.434   4.370
   96POPS  H16S10452   6.970   6.488   4.340
   96POPS  C21710453   7.028   6.309   4.230
   96POPS  H17R10454   7.060   6.207   4.256
   96POPS  H17S10455   7.100   6.349   4.155
   96POPS  C21810456   6.890   6.303   4.164
   96POPS  H18R10457   6.812   6.280   4.239
   96POPS  H18S10458   6.888   6.225   4.086
   96POPS  H18T10459   6.866   6.400   4.116
   96POPS   C3310460   7.323   6.288   5.785
   96POPS   H3X10461   7.346   6.353   5.698
   96POPS   H3Y10462   7.212   6.284   5.794
   96POPS   C3410463   7.375   6.145   5.762
   96POPS   H4X10464   7.328   6.078   5.837
   96POPS   H4Y10465   7.485   6.143   5.779
   96POPS   C3510466   7.348   6.092   5.621
   96POPS   H5X10467   7.239   6.099   5.599
   96POPS   H5Y10468   7.374   5.984   5.618
   96POPS   C3610469   7.430   6.165   5.513
   96POPS   H6X10470   7.538   6.157   5.537
   96POPS   H6Y10471   7.404   6.273   5.515
   96POPS   C3710472   7.406   6.114   5.371
   96POPS   H7X10473   7.298   6.089   5.358
   96POPS   H7Y10474   7.464   6.021   5.355
   96POPS   C3810475   7.445   6.220   5.267
   96POPS   H8X10476   7.538   6.271   5.300
   96POPS   H8Y10477   7.366   6.299   5.263
   96POPS   C3910478   7.468   6.165   5.125
   96POPS   H9X10479   7.553   6.093   5.128
   96POPS   H9Y10480   7.499   6.250   5.060
   96POPS  C31010481   7.345   6.095   5.065
   96POPS  H10X10482   7.261   6.099   5.136
   96POPS  H10Y10483   7.370   5.988   5.049
   96POPS  C31110484   7.297   6.155   4.931
   96POPS  H11X10485   7.260   6.258   4.950
   96POPS  H11Y10486   7.212   6.094   4.895
   96POPS  C31210487   7.404   6.160   4.821
   96POPS  H12X10488   7.465   6.068   4.826
   96POPS  H12Y10489   7.472   6.246   4.839
   96POPS  C31310490   7.345   6.171   4.680
   96POPS  H13X10491   7.274   6.257   4.674
   96POPS  H13Y10492   7.286   6.079   4.660
   96POPS  C31410493   7.454   6.187   4.573
   96POPS  H14X10494   7.543   6.130   4.608
   96POPS  H14Y10495   7.485   6.293   4.565
   96POPS  C31510496   7.416   6.132   4.435
   96POPS  H15X10497   7.368   6.032   4.446
   96POPS  H15Y10498   7.508   6.118   4.374
   96POPS  C31610499   7.326   6.223   4.354
   96POPS  H16X10500   7.375   6.321   4.335
   96POPS  H16Y10501   7.233   6.242   4.412
   96POPS  H16Z10502   7.299   6.177   4.257
   97POPS     N10503   5.821   0.280   6.255
   97POPS   HN110504   5.830   0.377   6.293
   97POPS   HN210505   5.908   0.226   6.274
   97POPS   HN310506   5.798   0.280   6.154
   97POPS   C1210507   5.709   0.206   6.321
   97POPS  H12A10508   5.630   0.277   6.341
   97POPS   C1310509   5.747   0.140   6.454
   97POPS  O13A10510   5.862   0.155   6.501
   97POPS  O13B10511   5.659   0.073   6.515
   97POPS   C1110512   5.658   0.102   6.219
   97POPS  H11A10513   5.570   0.049   6.260
   97POPS  H11B10514   5.738   0.027   6.200
   97POPS     P10515   5.619   0.096   5.961
   97POPS   O1310516   5.568   0.190   5.861
   97POPS   O1410517   5.549  -0.032   5.981
   97POPS   O1210518   5.620   0.173   6.101
   97POPS   O1110519   5.775   0.073   5.946
   97POPS    C110520   5.865   0.182   5.928
   97POPS    HA10521   5.948   0.171   6.000
   97POPS    HB10522   5.817   0.281   5.947
   97POPS    C210523   5.930   0.187   5.786
   97POPS    HS10524   5.998   0.275   5.783
   97POPS   O2110525   5.832   0.199   5.683
   97POPS   C2110526   5.774   0.316   5.670
   97POPS   O2210527   5.779   0.410   5.748
   97POPS   C2210528   5.716   0.321   5.531
   97POPS   H2R10529   5.626   0.387   5.534
   97POPS   H2S10530   5.681   0.219   5.504
   97POPS    C310531   6.019   0.063   5.757
   97POPS    HX10532   6.066   0.033   5.853
   97POPS    HY10533   6.102   0.096   5.690
   97POPS   O3110534   5.946  -0.050   5.706
   97POPS   C3110535   5.960  -0.074   5.577
   97POPS   O3210536   6.035  -0.016   5.501
   97POPS   C3210537   5.875  -0.194   5.541
   97POPS   H2X10538   5.776  -0.183   5.591
   97POPS   H2Y10539   5.927  -0.281   5.585
   97POPS   C2310540   5.818   0.376   5.428
   97POPS   H3R10541   5.853   0.476   5.460
   97POPS   H3S10542   5.764   0.387   5.332
   97POPS   C2410543   5.940   0.286   5.403
   97POPS   H4R10544   5.903   0.182   5.392
   97POPS   H4S10545   6.008   0.285   5.491
   97POPS   C2510546   6.019   0.325   5.277
   97POPS   H5R10547   6.075   0.418   5.299
   97POPS   H5S10548   5.948   0.347   5.195
   97POPS   C2610549   6.116   0.215   5.227
   97POPS   H6R10550   6.186   0.186   5.308
   97POPS   H6S10551   6.175   0.256   5.143
   97POPS   C2710552   6.040   0.091   5.178
   97POPS   H7R10553   5.954   0.129   5.118
   97POPS   H7S10554   5.999   0.037   5.266
   97POPS   C2810555   6.122  -0.011   5.096
   97POPS   H8R10556   6.186  -0.067   5.167
   97POPS   H8S10557   6.191   0.042   5.027
   97POPS   C2910558   6.031  -0.105   5.020
   97POPS   H9110559   6.033  -0.209   5.055
   97POPS  C21010560   5.948  -0.072   4.919
   97POPS  H10110561   5.887  -0.152   4.875
   97POPS  C21110562   5.927   0.063   4.856
   97POPS  H11R10563   5.857   0.122   4.920
   97POPS  H11S10564   5.875   0.051   4.759
   97POPS  C21210565   6.049   0.154   4.831
   97POPS  H12R10566   6.091   0.195   4.925
   97POPS  H12S10567   6.008   0.241   4.775
   97POPS  C21310568   6.158   0.094   4.743
   97POPS  H13R10569   6.120  -0.004   4.708
   97POPS  H13S10570   6.249   0.074   4.803
   97POPS  C21410571   6.195   0.176   4.618
   97POPS  H14R10572   6.248   0.102   4.554
   97POPS  H14S10573   6.267   0.256   4.644
   97POPS  C21510574   6.079   0.236   4.536
   97POPS  H15R10575   6.062   0.342   4.563
   97POPS  H15S10576   5.987   0.180   4.564
   97POPS  C21610577   6.095   0.223   4.383
   97POPS  H16R10578   5.994   0.220   4.336
   97POPS  H16S10579   6.142   0.124   4.362
   97POPS  C21710580   6.172   0.336   4.313
   97POPS  H17R10581   6.101   0.418   4.290
   97POPS  H17S10582   6.210   0.299   4.216
   97POPS  C21810583   6.288   0.394   4.394
   97POPS  H18R10584   6.247   0.453   4.479
   97POPS  H18S10585   6.350   0.460   4.330
   97POPS  H18T10586   6.354   0.318   4.439
   97POPS   C3310587   5.856  -0.216   5.389
   97POPS   H3X10588   5.852  -0.326   5.372
   97POPS   H3Y10589   5.943  -0.178   5.331
   97POPS   C3410590   5.725  -0.156   5.337
   97POPS   H4X10591   5.641  -0.199   5.395
   97POPS   H4Y10592   5.713  -0.186   5.230
   97POPS   C3510593   5.721  -0.004   5.348
   97POPS   H5X10594   5.795   0.040   5.278
   97POPS   H5Y10595   5.749   0.027   5.452
   97POPS   C3610596   5.584   0.059   5.318
   97POPS   H6X10597   5.592   0.170   5.322
   97POPS   H6Y10598   5.514   0.027   5.398
   97POPS   C3710599   5.531   0.019   5.181
   97POPS   H7X10600   5.428   0.058   5.169
   97POPS   H7Y10601   5.528  -0.092   5.174
   97POPS   C3810602   5.616   0.070   5.066
   97POPS   H8X10603   5.583   0.019   4.973
   97POPS   H8Y10604   5.723   0.042   5.079
   97POPS   C3910605   5.602   0.221   5.052
   97POPS   H9X10606   5.686   0.272   5.106
   97POPS   H9Y10607   5.508   0.255   5.100
   97POPS  C31010608   5.598   0.264   4.907
   97POPS  H10X10609   5.690   0.230   4.855
   97POPS  H10Y10610   5.599   0.375   4.905
   97POPS  C31110611   5.474   0.213   4.832
   97POPS  H11X10612   5.383   0.236   4.892
   97POPS  H11Y10613   5.477   0.103   4.818
   97POPS  C31210614   5.462   0.279   4.696
   97POPS  H12X10615   5.472   0.389   4.712
   97POPS  H12Y10616   5.360   0.263   4.655
   97POPS  C31310617   5.570   0.235   4.597
   97POPS  H13X10618   5.663   0.205   4.651
   97POPS  H13Y10619   5.598   0.320   4.532
   97POPS  C31410620   5.524   0.119   4.510
   97POPS  H14X10621   5.495   0.032   4.573
   97POPS  H14Y10622   5.611   0.088   4.447
   97POPS  C31510623   5.410   0.155   4.415
   97POPS  H15X10624   5.318   0.171   4.475
   97POPS  H15Y10625   5.388   0.068   4.350
   97POPS  C31610626   5.437   0.278   4.327
   97POPS  H16X10627   5.435   0.371   4.387
   97POPS  H16Y10628   5.360   0.287   4.247
   97POPS  H16Z10629   5.536   0.270   4.278
   98POPS     N10630   6.885   7.231   6.261
   98POPS   HN110631   6.887   7.216   6.158
   98POPS   HN210632   6.815   7.304   6.287
   98POPS   HN310633   6.979   7.260   6.296
   98POPS   C1210634   6.848   7.104   6.332
   98POPS  H12A10635   6.743   7.111   6.357
   98POPS   C1310636   6.926   7.080   6.464
   98POPS  O13A10637   7.004   7.170   6.506
   98POPS  O13B10638   6.907   6.972   6.526
   98POPS   C1110639   6.866   6.985   6.236
   98POPS  H11A10640   6.851   6.891   6.293
   98POPS  H11B10641   6.969   6.986   6.196
   98POPS     P10642   6.769   6.880   6.021
   98POPS   O1310643   6.684   6.921   5.909
   98POPS   O1410644   6.734   6.754   6.090
   98POPS   O1210645   6.767   6.994   6.132
   98POPS   O1110646   6.922   6.878   5.981
   98POPS    C110647   6.969   6.893   5.847
   98POPS    HA10648   6.890   6.877   5.770
   98POPS    HB10649   7.047   6.816   5.830
   98POPS    C210650   7.037   7.030   5.819
   98POPS    HS10651   7.091   7.064   5.910
   98POPS   O2110652   6.938   7.126   5.776
   98POPS   C2110653   6.885   7.204   5.868
   98POPS   O2210654   6.920   7.213   5.985
   98POPS   C2210655   6.768   7.282   5.806
   98POPS   H2R10656   6.701   7.310   5.890
   98POPS   H2S10657   6.712   7.215   5.739
   98POPS    C310658   7.143   7.015   5.706
   98POPS    HX10659   7.223   6.949   5.745
   98POPS    HY10660   7.187   7.116   5.686
   98POPS   O3110661   7.085   6.963   5.584
   98POPS   C3110662   7.173   6.915   5.497
   98POPS   O3210663   7.292   6.898   5.518
   98POPS   C3210664   7.106   6.892   5.363
   98POPS   H2X10665   7.181   6.910   5.283
   98POPS   H2Y10666   7.026   6.969   5.354
   98POPS   C2310667   6.812   7.412   5.732
   98POPS   H3R10668   6.871   7.476   5.800
   98POPS   H3S10669   6.720   7.468   5.706
   98POPS   C2410670   6.890   7.389   5.602
   98POPS   H4R10671   6.989   7.343   5.625
   98POPS   H4S10672   6.910   7.487   5.555
   98POPS   C2510673   6.818   7.300   5.498
   98POPS   H5R10674   6.717   7.342   5.478
   98POPS   H5S10675   6.805   7.198   5.540
   98POPS   C2610676   6.898   7.289   5.367
   98POPS   H6R10677   6.999   7.253   5.396
   98POPS   H6S10678   6.906   7.391   5.323
   98POPS   C2710679   6.839   7.192   5.263
   98POPS   H7R10680   6.737   7.226   5.238
   98POPS   H7S10681   6.830   7.092   5.312
   98POPS   C2810682   6.918   7.181   5.130
   98POPS   H8R10683   6.924   7.282   5.085
   98POPS   H8S10684   6.856   7.122   5.059
   98POPS   C2910685   7.059   7.129   5.132
   98POPS   H9110686   7.109   7.135   5.230
   98POPS  C21010687   7.127   7.080   5.027
   98POPS  H10110688   7.230   7.043   5.041
   98POPS  C21110689   7.073   7.067   4.886
   98POPS  H11R10690   7.155   7.079   4.812
   98POPS  H11S10691   6.997   7.144   4.864
   98POPS  C21210692   7.010   6.928   4.870
   98POPS  H12R10693   6.923   6.917   4.938
   98POPS  H12S10694   7.085   6.851   4.900
   98POPS  C21310695   6.965   6.897   4.727
   98POPS  H13R10696   7.010   6.970   4.655
   98POPS  H13S10697   6.855   6.909   4.722
   98POPS  C21410698   7.003   6.755   4.685
   98POPS  H14R10699   6.932   6.721   4.607
   98POPS  H14S10700   6.991   6.688   4.773
   98POPS  C21510701   7.147   6.743   4.630
   98POPS  H15R10702   7.182   6.638   4.643
   98POPS  H15S10703   7.215   6.809   4.687
   98POPS  C21610704   7.151   6.777   4.481
   98POPS  H16R10705   7.127   6.885   4.468
   98POPS  H16S10706   7.072   6.718   4.430
   98POPS  C21710707   7.283   6.748   4.409
   98POPS  H17R10708   7.309   6.641   4.423
   98POPS  H17S10709   7.364   6.810   4.454
   98POPS  C21810710   7.271   6.779   4.259
   98POPS  H18R10711   7.365   6.754   4.206
   98POPS  H18S10712   7.248   6.886   4.243
   98POPS  H18T10713   7.189   6.719   4.214
   98POPS   C3310714   7.047   6.750   5.348
   98POPS   H3X10715   6.984   6.729   5.437
   98POPS   H3Y10716   7.129   6.676   5.344
   98POPS   C3410717   6.957   6.735   5.225
   98POPS   H4X10718   6.915   6.632   5.223
   98POPS   H4Y10719   7.015   6.750   5.132
   98POPS   C3510720   6.840   6.834   5.229
   98POPS   H5X10721   6.877   6.931   5.189
   98POPS   H5Y10722   6.807   6.849   5.333
   98POPS   C3610723   6.721   6.792   5.145
   98POPS   H6X10724   6.686   6.693   5.179
   98POPS   H6Y10725   6.754   6.784   5.039
   98POPS   C3710726   6.606   6.893   5.157
   98POPS   H7X10727   6.643   6.995   5.132
   98POPS   H7Y10728   6.571   6.896   5.262
   98POPS   C3810729   6.487   6.859   5.066
   98POPS   H8X10730   6.406   6.932   5.083
   98POPS   H8Y10731   6.448   6.759   5.095
   98POPS   C3910732   6.521   6.856   4.917
   98POPS   H9X10733   6.431   6.818   4.864
   98POPS   H9Y10734   6.604   6.786   4.895
   98POPS  C31010735   6.557   6.996   4.866
   98POPS  H10X10736   6.651   7.031   4.911
   98POPS  H10Y10737   6.476   7.064   4.900
   98POPS  C31110738   6.567   7.005   4.713
   98POPS  H11X10739   6.525   6.915   4.664
   98POPS  H11Y10740   6.675   7.011   4.684
   98POPS  C31210741   6.494   7.129   4.663
   98POPS  H12X10742   6.533   7.217   4.719
   98POPS  H12Y10743   6.386   7.120   4.688
   98POPS  C31310744   6.510   7.155   4.514
   98POPS  H13X10745   6.411   7.148   4.464
   98POPS  H13Y10746   6.573   7.074   4.470
   98POPS  C31410747   6.571   7.292   4.482
   98POPS  H14X10748   6.500   7.371   4.513
   98POPS  H14Y10749   6.580   7.299   4.371
   98POPS  C31510750   6.708   7.324   4.546
   98POPS  H15X10751   6.695   7.333   4.656
   98POPS  H15Y10752   6.737   7.425   4.510
   98POPS  C31610753   6.823   7.227   4.519
   98POPS  H16X10754   6.914   7.258   4.574
   98POPS  H16Y10755   6.848   7.224   4.411
   98POPS  H16Z10756   6.797   7.124   4.552
   99POPS     N10757   7.094   0.654   6.030
   99POPS   HN110758   7.118   0.554   6.041
   99POPS   HN210759   7.009   0.665   5.970
   99POPS   HN310760   7.173   0.707   5.988
   99POPS   C1210761   7.076   0.720   6.163
   99POPS  H12A10762   6.971   0.742   6.179
   99POPS   C1310763   7.156   0.850   6.175
   99POPS  O13A10764   7.238   0.876   6.084
   99POPS  O13B10765   7.138   0.920   6.279
   99POPS   C1110766   7.134   0.632   6.275
   99POPS  H11A10767   7.154   0.692   6.366
   99POPS  H11B10768   7.231   0.590   6.241
   99POPS     P10769   7.090   0.404   6.384
   99POPS   O1310770   6.982   0.359   6.476
   99POPS   O1410771   7.219   0.437   6.451
   99POPS   O1210772   7.038   0.533   6.310
   99POPS   O1110773   7.116   0.308   6.262
   99POPS    C110774   7.025   0.302   6.151
   99POPS    HA10775   6.954   0.388   6.145
   99POPS    HB10776   6.963   0.211   6.164
   99POPS    C210777   7.095   0.288   6.012
   99POPS    HS10778   7.146   0.189   6.017
   99POPS   O2110779   7.185   0.399   5.987
   99POPS   C2110780   7.310   0.361   5.954
   99POPS   O2210781   7.357   0.250   5.972
   99POPS   C2210782   7.381   0.476   5.882
   99POPS   H2R10783   7.420   0.546   5.958
   99POPS   H2S10784   7.305   0.528   5.819
   99POPS    C310785   6.989   0.277   5.896
   99POPS    HX10786   6.901   0.225   5.938
   99POPS    HY10787   7.032   0.208   5.821
   99POPS   O3110788   6.944   0.405   5.840
   99POPS   C3110789   6.970   0.420   5.708
   99POPS   O3210790   7.048   0.352   5.645
   99POPS   C3210791   6.885   0.532   5.647
   99POPS   H2X10792   6.877   0.613   5.722
   99POPS   H2Y10793   6.783   0.492   5.628
   99POPS   C2310794   7.496   0.427   5.791
   99POPS   H3R10795   7.461   0.347   5.722
   99POPS   H3S10796   7.576   0.382   5.855
   99POPS   C2410797   7.558   0.540   5.707
   99POPS   H4R10798   7.656   0.507   5.667
   99POPS   H4S10799   7.577   0.626   5.774
   99POPS   C2510800   7.469   0.584   5.590
   99POPS   H5R10801   7.470   0.695   5.584
   99POPS   H5S10802   7.364   0.553   5.605
   99POPS   C2610803   7.518   0.532   5.454
   99POPS   H6R10804   7.517   0.421   5.453
   99POPS   H6S10805   7.623   0.566   5.439
   99POPS   C2710806   7.434   0.586   5.337
   99POPS   H7R10807   7.432   0.696   5.343
   99POPS   H7S10808   7.330   0.549   5.348
   99POPS   C2810809   7.491   0.544   5.200
   99POPS   H8R10810   7.496   0.433   5.198
   99POPS   H8S10811   7.594   0.583   5.192
   99POPS   C2910812   7.407   0.598   5.087
   99POPS   H9110813   7.356   0.693   5.108
   99POPS  C21010814   7.392   0.544   4.966
   99POPS  H10110815   7.328   0.594   4.892
   99POPS  C21110816   7.458   0.417   4.919
   99POPS  H11R10817   7.534   0.382   4.991
   99POPS  H11S10818   7.512   0.442   4.825
   99POPS  C21210819   7.360   0.301   4.892
   99POPS  H12R10820   7.295   0.287   4.980
   99POPS  H12S10821   7.418   0.207   4.878
   99POPS  C21310822   7.276   0.324   4.766
   99POPS  H13R10823   7.230   0.425   4.771
   99POPS  H13S10824   7.192   0.250   4.764
   99POPS  C21410825   7.356   0.310   4.636
   99POPS  H14R10826   7.366   0.202   4.611
   99POPS  H14S10827   7.459   0.350   4.649
   99POPS  C21510828   7.294   0.386   4.519
   99POPS  H15R10829   7.350   0.361   4.427
   99POPS  H15S10830   7.306   0.495   4.536
   99POPS  C21610831   7.145   0.357   4.501
   99POPS  H16R10832   7.089   0.389   4.591
   99POPS  H16S10833   7.128   0.247   4.489
   99POPS  C21710834   7.088   0.431   4.380
   99POPS  H17R10835   7.110   0.539   4.394
   99POPS  H17S10836   6.978   0.417   4.379
   99POPS  C21810837   7.146   0.386   4.246
   99POPS  H18R10838   7.252   0.416   4.237
   99POPS  H18S10839   7.088   0.433   4.163
   99POPS  H18T10840   7.140   0.276   4.236
   99POPS   C3310841   6.943   0.592   5.515
   99POPS   H3X10842   7.051   0.616   5.527
   99POPS   H3Y10843   6.890   0.689   5.497
   99POPS   C3410844   6.924   0.508   5.387
   99POPS   H4X10845   6.817   0.480   5.377
   99POPS   H4Y10846   6.983   0.414   5.395
   99POPS   C3510847   6.967   0.584   5.259
   99POPS   H5X10848   7.072   0.618   5.272
   99POPS   H5Y10849   6.901   0.673   5.251
   99POPS   C3610850   6.957   0.506   5.127
   99POPS   H6X10851   6.853   0.467   5.121
   99POPS   H6Y10852   7.028   0.421   5.133
   99POPS   C3710853   6.982   0.584   4.995
   99POPS   H7X10854   7.036   0.515   4.926
   99POPS   H7Y10855   7.048   0.671   5.012
   99POPS   C3810856   6.850   0.624   4.927
   99POPS   H8X10857   6.793   0.691   4.997
   99POPS   H8Y10858   6.790   0.531   4.919
   99POPS   C3910859   6.850   0.690   4.787
   99POPS   H9X10860   6.827   0.798   4.798
   99POPS   H9Y10861   6.766   0.649   4.727
   99POPS  C31010862   6.976   0.676   4.701
   99POPS  H10X10863   6.980   0.575   4.655
   99POPS  H10Y10864   7.067   0.688   4.764
   99POPS  C31110865   6.983   0.785   4.592
   99POPS  H11X10866   7.074   0.768   4.530
   99POPS  H11Y10867   6.994   0.882   4.644
   99POPS  C31210868   6.861   0.797   4.497
   99POPS  H12X10869   6.884   0.880   4.426
   99POPS  H12Y10870   6.770   0.824   4.553
   99POPS  C31310871   6.836   0.670   4.414
   99POPS  H13X10872   6.794   0.591   4.480
   99POPS  H13Y10873   6.934   0.636   4.376
   99POPS  C31410874   6.746   0.687   4.290
   99POPS  H14X10875   6.652   0.741   4.316
   99POPS  H14Y10876   6.718   0.585   4.256
   99POPS  C31510877   6.818   0.756   4.173
   99POPS  H15X10878   6.924   0.726   4.173
   99POPS  H15Y10879   6.815   0.866   4.188
   99POPS  C31610880   6.759   0.721   4.036
   99POPS  H16X10881   6.812   0.776   3.955
   99POPS  H16Y10882   6.651   0.748   4.031
   99POPS  H16Z10883   6.769   0.613   4.016
  100POPS     N10884   6.365   7.509   6.233
  100POPS   HN110885   6.307   7.423   6.241
  100POPS   HN210886   6.351   7.571   6.316
  100POPS   HN310887   6.334   7.560   6.148
  100POPS   C1210888   6.511   7.480   6.227
  100POPS  H12A10889   6.525   7.400   6.155
  100POPS   C1310890   6.570   7.432   6.362
  100POPS  O13A10891   6.502   7.442   6.468
  100POPS  O13B10892   6.684   7.377   6.362
  100POPS   C1110893   6.586   7.608   6.178
  100POPS  H11A10894   6.559   7.625   6.071
  100POPS  H11B10895   6.696   7.590   6.181
  100POPS     P10896   6.589   7.867   6.209
  100POPS   O1310897   6.732   7.873   6.175
  100POPS   O1410898   6.534   7.963   6.308
  100POPS   O1210899   6.552   7.721   6.259
  100POPS   O1110900   6.503   7.873   6.075
  100POPS    C110901   6.363   7.892   6.090
  100POPS    HA10902   6.342   7.991   6.137
  100POPS    HB10903   6.319   7.814   6.157
  100POPS    C210904   6.284   7.889   5.956
  100POPS    HS10905   6.178   7.868   5.982
  100POPS   O2110906   6.334   7.789   5.864
  100POPS   C2110907   6.322   7.664   5.904
  100POPS   O2210908   6.276   7.627   6.011
  100POPS   C2210909   6.371   7.566   5.797
  100POPS   H2R10910   6.427   7.485   5.848
  100POPS   H2S10911   6.439   7.618   5.726
  100POPS    C310912   6.285   8.030   5.889
  100POPS    HX10913   6.286   8.108   5.968
  100POPS    HY10914   6.188   8.041   5.838
  100POPS   O3110915   6.398   8.053   5.802
  100POPS   C3110916   6.371   8.030   5.674
  100POPS   O3210917   6.265   7.991   5.629
  100POPS   C3210918   6.494   8.064   5.592
  100POPS   H2X10919   6.585   8.046   5.653
  100POPS   H2Y10920   6.489   8.173   5.569
  100POPS   C2310921   6.253   7.504   5.718
  100POPS   H3R10922   6.207   7.584   5.656
  100POPS   H3S10923   6.175   7.466   5.788
  100POPS   C2410924   6.292   7.389   5.624
  100POPS   H4R10925   6.198   7.344   5.585
  100POPS   H4S10926   6.347   7.309   5.680
  100POPS   C2510927   6.375   7.434   5.503
  100POPS   H5R10928   6.477   7.463   5.536
  100POPS   H5S10929   6.326   7.523   5.459
  100POPS   C2610930   6.385   7.324   5.396
  100POPS   H6R10931   6.284   7.304   5.356
  100POPS   H6S10932   6.422   7.231   5.444
  100POPS   C2710933   6.479   7.360   5.280
  100POPS   H7R10934   6.481   7.274   5.209
  100POPS   H7S10935   6.582   7.373   5.319
  100POPS   C2810936   6.439   7.488   5.205
  100POPS   H8R10937   6.439   7.574   5.274
  100POPS   H8S10938   6.334   7.476   5.169
  100POPS   C2910939   6.534   7.513   5.091
  100POPS   H9110940   6.624   7.570   5.119
  100POPS  C21010941   6.519   7.472   4.964
  100POPS  H10110942   6.596   7.498   4.890
  100POPS  C21110943   6.403   7.392   4.909
  100POPS  H11R10944   6.322   7.377   4.984
  100POPS  H11S10945   6.438   7.290   4.882
  100POPS  C21210946   6.341   7.460   4.787
  100POPS  H12R10947   6.419   7.493   4.715
  100POPS  H12S10948   6.288   7.551   4.822
  100POPS  C21310949   6.241   7.371   4.712
  100POPS  H13R10950   6.194   7.300   4.783
  100POPS  H13S10951   6.294   7.312   4.634
  100POPS  C21410952   6.131   7.455   4.646
  100POPS  H14R10953   6.182   7.538   4.593
  100POPS  H14S10954   6.068   7.497   4.726
  100POPS  C21510955   6.042   7.382   4.545
  100POPS  H15R10956   6.001   7.289   4.590
  100POPS  H15S10957   6.107   7.353   4.459
  100POPS  C21610958   5.924   7.466   4.496
  100POPS  H16R10959   5.840   7.456   4.567
  100POPS  H16S10960   5.889   7.426   4.398
  100POPS  C21710961   5.957   7.615   4.483
  100POPS  H17R10962   6.056   7.628   4.435
  100POPS  H17S10963   5.963   7.657   4.586
  100POPS  C21810964   5.853   7.695   4.407
  100POPS  H18R10965   5.753   7.647   4.420
  100POPS  H18S10966   5.879   7.697   4.299
  100POPS  H18T10967   5.846   7.800   4.442
  100POPS   C3310968   6.496   7.982   5.462
  100POPS   H3X10969   6.583   8.013   5.400
  100POPS   H3Y10970   6.406   8.006   5.401
  100POPS   C3410971   6.499   7.830   5.484
  100POPS   H4X10972   6.516   7.782   5.385
  100POPS   H4Y10973   6.397   7.798   5.513
  100POPS   C3510974   6.596   7.773   5.591
  100POPS   H5X10975   6.600   7.664   5.574
  100POPS   H5Y10976   6.549   7.790   5.690
  100POPS   C3610977   6.741   7.825   5.604
  100POPS   H6X10978   6.800   7.745   5.654
  100POPS   H6Y10979   6.742   7.912   5.673
  100POPS   C3710980   6.813   7.866   5.476
  100POPS   H7X10981   6.920   7.885   5.499
  100POPS   H7Y10982   6.772   7.963   5.440
  100POPS   C3810983   6.806   7.762   5.364
  100POPS   H8X10984   6.702   7.730   5.342
  100POPS   H8Y10985   6.862   7.672   5.395
  100POPS   C3910986   6.866   7.815   5.234
  100POPS   H9X10987   6.865   7.730   5.163
  100POPS   H9Y10988   6.972   7.845   5.253
  100POPS  C31010989   6.793   7.929   5.162
  100POPS  H10X10990   6.868   7.973   5.093
  100POPS  H10Y10991   6.761   8.007   5.234
  100POPS  C31110992   6.675   7.888   5.072
  100POPS  H11X10993   6.629   7.982   5.035
  100POPS  H11Y10994   6.598   7.834   5.131
  100POPS  C31210995   6.719   7.807   4.950
  100POPS  H12X10996   6.684   7.702   4.961
  100POPS  H12Y10997   6.830   7.806   4.944
  100POPS  C31310998   6.669   7.860   4.816
  100POPS  H13X10999   6.560   7.882   4.822
  100POPS  H13Y11000   6.683   7.782   4.738
  100POPS  C31411001   6.745   7.986   4.774
  100POPS  H14X11002   6.854   7.964   4.764
  100POPS  H14Y11003   6.733   8.060   4.856
  100POPS  C31511004   6.693   8.047   4.645
  100POPS  H15X11005   6.734   8.150   4.634
  100POPS  H15Y11006   6.582   8.055   4.651
  100POPS  C31611007   6.731   7.966   4.523
  100POPS  H16X11008   6.698   7.860   4.533
  100POPS  H16Y11009   6.842   7.966   4.509
  100POPS  H16Z11010   6.683   8.009   4.433
  101POPS     N11011   3.173   3.781   2.383
  101POPS   HN111012   3.135   3.690   2.416
  101POPS   HN211013   3.276   3.773   2.375
  101POPS   HN311014   3.144   3.853   2.452
  101POPS   C1211015   3.114   3.820   2.251
  101POPS  H12A11016   3.019   3.769   2.242
  101POPS   C1311017   3.200   3.784   2.128
  101POPS  O13A11018   3.312   3.729   2.146
  101POPS  O13B11019   3.157   3.813   2.013
  101POPS   C1111020   3.087   3.974   2.249
  101POPS  H11A11021   3.013   3.997   2.169
  101POPS  H11B11022   3.181   4.027   2.222
  101POPS     P11023   2.907   3.986   2.442
  101POPS   O1311024   2.949   3.895   2.551
  101POPS   O1411025   2.820   3.929   2.337
  101POPS   O1211026   3.044   4.027   2.374
  101POPS   O1111027   2.850   4.124   2.495
  101POPS    C111028   2.930   4.243   2.501
  101POPS    HA11029   2.863   4.331   2.491
  101POPS    HB11030   3.002   4.250   2.416
  101POPS    C211031   3.009   4.258   2.634
  101POPS    HS11032   3.064   4.355   2.627
  101POPS   O2111033   3.107   4.153   2.636
  101POPS   C2111034   3.144   4.086   2.743
  101POPS   O2211035   3.110   4.105   2.858
  101POPS   C2211036   3.246   3.979   2.700
  101POPS   H2R11037   3.296   4.016   2.608
  101POPS   H2S11038   3.190   3.887   2.677
  101POPS    C311039   2.912   4.274   2.756
  101POPS    HX11040   2.834   4.349   2.730
  101POPS    HY11041   2.972   4.319   2.838
  101POPS   O3111042   2.847   4.151   2.794
  101POPS   C3111043   2.832   4.137   2.926
  101POPS   O3211044   2.836   4.229   3.007
  101POPS   C3211045   2.806   3.991   2.959
  101POPS   H2X11046   2.869   3.927   2.893
  101POPS   H2Y11047   2.699   3.971   2.934
  101POPS   C2311048   3.353   3.951   2.808
  101POPS   H3R11049   3.399   4.045   2.843
  101POPS   H3S11050   3.434   3.890   2.764
  101POPS   C2411051   3.299   3.874   2.930
  101POPS   H4R11052   3.274   3.770   2.897
  101POPS   H4S11053   3.206   3.921   2.968
  101POPS   C2511054   3.399   3.869   3.045
  101POPS   H5R11055   3.444   3.970   3.057
  101POPS   H5S11056   3.480   3.798   3.019
  101POPS   C2611057   3.337   3.830   3.181
  101POPS   H6R11058   3.226   3.829   3.173
  101POPS   H6S11059   3.363   3.907   3.256
  101POPS   C2711060   3.387   3.694   3.232
  101POPS   H7R11061   3.497   3.691   3.240
  101POPS   H7S11062   3.358   3.617   3.158
  101POPS   C2811063   3.323   3.657   3.367
  101POPS   H8R11064   3.339   3.548   3.383
  101POPS   H8S11065   3.214   3.673   3.351
  101POPS   C2911066   3.368   3.731   3.490
  101POPS   H9111067   3.474   3.760   3.494
  101POPS  C21011068   3.288   3.766   3.592
  101POPS  H10111069   3.331   3.820   3.678
  101POPS  C21111070   3.141   3.739   3.600
  101POPS  H11R11071   3.106   3.737   3.705
  101POPS  H11S11072   3.116   3.639   3.558
  101POPS  C21211073   3.062   3.847   3.522
  101POPS  H12R11074   2.954   3.827   3.535
  101POPS  H12S11075   3.084   3.837   3.414
  101POPS  C21311076   3.093   3.992   3.564
  101POPS  H13R11077   3.036   4.060   3.497
  101POPS  H13S11078   3.201   4.012   3.545
  101POPS  C21411079   3.058   4.025   3.710
  101POPS  H14R11080   3.004   3.937   3.753
  101POPS  H14S11081   2.988   4.111   3.714
  101POPS  C21511082   3.178   4.059   3.799
  101POPS  H15R11083   3.202   4.167   3.787
  101POPS  H15S11084   3.267   4.002   3.764
  101POPS  C21611085   3.153   4.028   3.948
  101POPS  H16R11086   3.056   4.073   3.978
  101POPS  H16S11087   3.233   4.076   4.008
  101POPS  C21711088   3.155   3.878   3.982
  101POPS  H17R11089   3.246   3.856   4.042
  101POPS  H17S11090   3.165   3.820   3.888
  101POPS  C21811091   3.032   3.830   4.058
  101POPS  H18R11092   3.039   3.721   4.080
  101POPS  H18S11093   2.940   3.847   3.997
  101POPS  H18T11094   3.021   3.885   4.153
  101POPS   C3311095   2.833   3.955   3.107
  101POPS   H3X11096   2.812   4.044   3.171
  101POPS   H3Y11097   2.940   3.929   3.121
  101POPS   C3411098   2.742   3.841   3.153
  101POPS   H4X11099   2.752   3.759   3.079
  101POPS   H4Y11100   2.637   3.879   3.149
  101POPS   C3511101   2.767   3.783   3.293
  101POPS   H5X11102   2.876   3.779   3.313
  101POPS   H5Y11103   2.730   3.678   3.293
  101POPS   C3611104   2.694   3.857   3.406
  101POPS   H6X11105   2.713   3.801   3.500
  101POPS   H6Y11106   2.584   3.857   3.389
  101POPS   C3711107   2.745   4.001   3.424
  101POPS   H7X11108   2.681   4.072   3.367
  101POPS   H7Y11109   2.847   4.006   3.380
  101POPS   C3811110   2.760   4.044   3.570
  101POPS   H8X11111   2.823   4.136   3.570
  101POPS   H8Y11112   2.813   3.965   3.627
  101POPS   C3911113   2.630   4.077   3.642
  101POPS   H9X11114   2.569   3.986   3.659
  101POPS   H9Y11115   2.573   4.146   3.576
  101POPS  C31011116   2.656   4.151   3.773
  101POPS  H10X11117   2.561   4.195   3.809
  101POPS  H10Y11118   2.725   4.236   3.752
  101POPS  C31111119   2.716   4.065   3.884
  101POPS  H11X11120   2.821   4.038   3.860
  101POPS  H11Y11121   2.657   3.971   3.892
  101POPS  C31211122   2.710   4.139   4.018
  101POPS  H12X11123   2.604   4.170   4.033
  101POPS  H12Y11124   2.771   4.232   4.013
  101POPS  C31311125   2.753   4.053   4.137
  101POPS  H13X11126   2.859   4.077   4.162
  101POPS  H13Y11127   2.748   3.945   4.111
  101POPS  C31411128   2.663   4.077   4.259
  101POPS  H14X11129   2.574   4.011   4.252
  101POPS  H14Y11130   2.627   4.182   4.258
  101POPS  C31511131   2.736   4.055   4.391
  101POPS  H15X11132   2.806   4.140   4.405
  101POPS  H15Y11133   2.797   3.963   4.386
  101POPS  C31611134   2.640   4.047   4.509
  101POPS  H16X11135   2.696   4.043   4.605
  101POPS  H16Y11136   2.579   3.954   4.503
  101POPS  H16Z11137   2.571   4.133   4.511
  102POPS     N11138   4.196   4.970   2.157
  102POPS   HN111139   4.182   5.069   2.128
  102POPS   HN211140   4.223   4.962   2.257
  102POPS   HN311141   4.273   4.928   2.101
  102POPS   C1211142   4.072   4.890   2.135
  102POPS  H12A11143   4.099   4.785   2.138
  102POPS   C1311144   4.006   4.916   1.997
  102POPS  O13A11145   4.038   5.019   1.931
  102POPS  O13B11146   3.925   4.830   1.952
  102POPS   C1111147   3.973   4.919   2.254
  102POPS  H11A11148   3.870   4.897   2.219
  102POPS  H11B11149   3.974   5.026   2.282
  102POPS     P11150   4.124   4.843   2.462
  102POPS   O1311151   4.240   4.804   2.377
  102POPS   O1411152   4.098   4.771   2.588
  102POPS   O1211153   3.996   4.836   2.368
  102POPS   O1111154   4.134   4.999   2.488
  102POPS    C111155   4.072   5.060   2.602
  102POPS    HA11156   4.003   4.992   2.658
  102POPS    HB11157   4.010   5.145   2.566
  102POPS    C211158   4.175   5.119   2.704
  102POPS    HS11159   4.264   5.151   2.646
  102POPS   O2111160   4.209   5.024   2.806
  102POPS   C2111161   4.301   4.937   2.774
  102POPS   O2211162   4.361   4.930   2.668
  102POPS   C2211163   4.332   4.853   2.897
  102POPS   H2R11164   4.296   4.907   2.988
  102POPS   H2S11165   4.442   4.842   2.905
  102POPS    C311166   4.125   5.245   2.781
  102POPS    HX11167   4.070   5.312   2.712
  102POPS    HY11168   4.218   5.297   2.812
  102POPS   O3111169   4.050   5.215   2.902
  102POPS   C3111170   3.927   5.173   2.878
  102POPS   O3211171   3.869   5.181   2.772
  102POPS   C3211172   3.866   5.112   3.004
  102POPS   H2X11173   3.838   5.195   3.072
  102POPS   H2Y11174   3.942   5.049   3.054
  102POPS   C2311175   4.266   4.716   2.885
  102POPS   H3R11176   4.292   4.670   2.787
  102POPS   H3S11177   4.155   4.728   2.885
  102POPS   C2411178   4.306   4.617   2.996
  102POPS   H4R11179   4.410   4.583   2.981
  102POPS   H4S11180   4.237   4.532   2.980
  102POPS   C2511181   4.285   4.666   3.139
  102POPS   H5R11182   4.247   4.582   3.201
  102POPS   H5S11183   4.206   4.744   3.137
  102POPS   C2611184   4.409   4.724   3.208
  102POPS   H6R11185   4.443   4.813   3.151
  102POPS   H6S11186   4.492   4.651   3.205
  102POPS   C2711187   4.382   4.765   3.355
  102POPS   H7R11188   4.471   4.818   3.396
  102POPS   H7S11189   4.369   4.672   3.415
  102POPS   C2811190   4.259   4.855   3.377
  102POPS   H8R11191   4.257   4.886   3.483
  102POPS   H8S11192   4.169   4.791   3.362
  102POPS   C2911193   4.252   4.973   3.283
  102POPS   H9111194   4.219   4.948   3.181
  102POPS  C21011195   4.280   5.101   3.310
  102POPS  H10111196   4.270   5.176   3.230
  102POPS  C21111197   4.325   5.156   3.443
  102POPS  H11R11198   4.410   5.225   3.427
  102POPS  H11S11199   4.361   5.077   3.512
  102POPS  C21211200   4.210   5.234   3.511
  102POPS  H12R11201   4.172   5.310   3.440
  102POPS  H12S11202   4.250   5.287   3.600
  102POPS  C21311203   4.089   5.148   3.553
  102POPS  H13R11204   4.062   5.080   3.469
  102POPS  H13S11205   4.002   5.214   3.571
  102POPS  C21411206   4.114   5.065   3.680
  102POPS  H14R11207   4.219   5.030   3.683
  102POPS  H14S11208   4.049   4.974   3.674
  102POPS  C21511209   4.078   5.140   3.808
  102POPS  H15R11210   3.975   5.182   3.799
  102POPS  H15S11211   4.148   5.226   3.821
  102POPS  C21611212   4.083   5.049   3.931
  102POPS  H16R11213   4.185   5.004   3.934
  102POPS  H16S11214   4.011   4.966   3.917
  102POPS  C21711215   4.052   5.124   4.061
  102POPS  H17R11216   3.947   5.160   4.056
  102POPS  H17S11217   4.117   5.213   4.068
  102POPS  C21811218   4.070   5.039   4.188
  102POPS  H18R11219   4.083   4.932   4.162
  102POPS  H18S11220   3.982   5.049   4.255
  102POPS  H18T11221   4.160   5.072   4.244
  102POPS   C3311222   3.742   5.029   2.965
  102POPS   H3X11223   3.666   5.095   2.917
  102POPS   H3Y11224   3.695   4.990   3.058
  102POPS   C3411225   3.772   4.912   2.869
  102POPS   H4X11226   3.803   4.951   2.769
  102POPS   H4Y11227   3.679   4.854   2.853
  102POPS   C3511228   3.881   4.814   2.916
  102POPS   H5X11229   3.975   4.870   2.934
  102POPS   H5Y11230   3.903   4.742   2.835
  102POPS   C3611231   3.839   4.738   3.043
  102POPS   H6X11232   3.792   4.641   3.015
  102POPS   H6Y11233   3.762   4.799   3.095
  102POPS   C3711234   3.953   4.716   3.141
  102POPS   H7X11235   4.015   4.808   3.144
  102POPS   H7Y11236   4.015   4.632   3.104
  102POPS   C3811237   3.907   4.688   3.285
  102POPS   H8X11238   3.987   4.632   3.338
  102POPS   H8Y11239   3.817   4.622   3.282
  102POPS   C3911240   3.877   4.817   3.363
  102POPS   H9X11241   3.814   4.883   3.299
  102POPS   H9Y11242   3.971   4.872   3.382
  102POPS  C31011243   3.804   4.794   3.496
  102POPS  H10X11244   3.710   4.737   3.478
  102POPS  H10Y11245   3.775   4.893   3.538
  102POPS  C31111246   3.887   4.720   3.601
  102POPS  H11X11247   3.984   4.771   3.615
  102POPS  H11Y11248   3.908   4.617   3.566
  102POPS  C31211249   3.814   4.714   3.736
  102POPS  H12X11250   3.715   4.664   3.721
  102POPS  H12Y11251   3.794   4.817   3.771
  102POPS  C31311252   3.891   4.638   3.845
  102POPS  H13X11253   3.993   4.681   3.856
  102POPS  H13Y11254   3.903   4.533   3.811
  102POPS  C31411255   3.819   4.640   3.980
  102POPS  H14X11256   3.848   4.550   4.038
  102POPS  H14Y11257   3.710   4.637   3.964
  102POPS  C31511258   3.856   4.763   4.065
  102POPS  H15X11259   3.838   4.855   4.005
  102POPS  H15Y11260   3.964   4.759   4.087
  102POPS  C31611261   3.777   4.773   4.196
  102POPS  H16X11262   3.785   4.678   4.253
  102POPS  H16Y11263   3.670   4.793   4.176
  102POPS  H16Z11264   3.817   4.855   4.259
  103POPS     N11265   2.620   4.478   2.432
  103POPS   HN111266   2.706   4.531   2.409
  103POPS   HN211267   2.540   4.539   2.458
  103POPS   HN311268   2.637   4.403   2.502
  103POPS   C1211269   2.579   4.417   2.302
  103POPS  H12A11270   2.553   4.314   2.320
  103POPS   C1311271   2.692   4.425   2.198
  103POPS  O13A11272   2.799   4.486   2.227
  103POPS  O13B11273   2.673   4.374   2.084
  103POPS   C1111274   2.455   4.498   2.251
  103POPS  H11A11275   2.403   4.434   2.177
  103POPS  H11B11276   2.492   4.588   2.197
  103POPS     P11277   2.243   4.628   2.317
  103POPS   O1311278   2.176   4.565   2.202
  103POPS   O1411279   2.297   4.764   2.298
  103POPS   O1211280   2.367   4.536   2.359
  103POPS   O1111281   2.147   4.625   2.445
  103POPS    C111282   2.177   4.543   2.558
  103POPS    HA11283   2.254   4.592   2.622
  103POPS    HB11284   2.218   4.445   2.525
  103POPS    C211285   2.053   4.506   2.648
  103POPS    HS11286   1.963   4.500   2.582
  103POPS   O2111287   2.034   4.598   2.759
  103POPS   C2111288   1.934   4.684   2.754
  103POPS   O2211289   1.860   4.699   2.658
  103POPS   C2211290   1.920   4.758   2.889
  103POPS   H2R11291   1.915   4.681   2.969
  103POPS   H2S11292   1.822   4.811   2.888
  103POPS    C311293   2.074   4.364   2.710
  103POPS    HX11294   2.080   4.289   2.628
  103POPS    HY11295   1.983   4.340   2.769
  103POPS   O3111296   2.189   4.361   2.798
  103POPS   C3111297   2.298   4.296   2.759
  103POPS   O3211298   2.311   4.233   2.656
  103POPS   C3211299   2.413   4.329   2.854
  103POPS   H2X11300   2.373   4.383   2.943
  103POPS   H2Y11301   2.481   4.397   2.798
  103POPS   C2311302   2.032   4.862   2.920
  103POPS   H3R11303   2.015   4.955   2.863
  103POPS   H3S11304   2.129   4.819   2.884
  103POPS   C2411305   2.057   4.897   3.068
  103POPS   H4R11306   2.076   4.804   3.125
  103POPS   H4S11307   1.965   4.942   3.111
  103POPS   C2511308   2.177   4.994   3.087
  103POPS   H5R11309   2.139   5.096   3.110
  103POPS   H5S11310   2.230   5.003   2.990
  103POPS   C2611311   2.277   4.952   3.197
  103POPS   H6R11312   2.271   4.842   3.212
  103POPS   H6S11313   2.244   4.995   3.293
  103POPS   C2711314   2.425   4.986   3.170
  103POPS   H7R11315   2.442   5.089   3.209
  103POPS   H7S11316   2.447   4.990   3.061
  103POPS   C2811317   2.528   4.891   3.239
  103POPS   H8R11318   2.494   4.869   3.342
  103POPS   H8S11319   2.620   4.952   3.248
  103POPS   C2911320   2.576   4.767   3.168
  103POPS   H9111321   2.605   4.783   3.063
  103POPS  C21011322   2.588   4.643   3.219
  103POPS  H10111323   2.627   4.563   3.155
  103POPS  C21111324   2.555   4.597   3.359
  103POPS  H11R11325   2.517   4.492   3.356
  103POPS  H11S11326   2.474   4.658   3.404
  103POPS  C21211327   2.678   4.601   3.452
  103POPS  H12R11328   2.707   4.707   3.467
  103POPS  H12S11329   2.763   4.548   3.406
  103POPS  C21311330   2.650   4.537   3.589
  103POPS  H13R11331   2.632   4.428   3.577
  103POPS  H13S11332   2.557   4.582   3.630
  103POPS  C21411333   2.765   4.560   3.688
  103POPS  H14R11334   2.790   4.669   3.684
  103POPS  H14S11335   2.855   4.504   3.658
  103POPS  C21511336   2.727   4.526   3.833
  103POPS  H15R11337   2.725   4.416   3.850
  103POPS  H15S11338   2.623   4.563   3.850
  103POPS  C21611339   2.820   4.593   3.935
  103POPS  H16R11340   2.843   4.695   3.899
  103POPS  H16S11341   2.916   4.538   3.943
  103POPS  C21711342   2.754   4.606   4.073
  103POPS  H17R11343   2.752   4.507   4.123
  103POPS  H17S11344   2.649   4.639   4.059
  103POPS  C21811345   2.822   4.709   4.162
  103POPS  H18R11346   2.762   4.725   4.255
  103POPS  H18S11347   2.830   4.807   4.110
  103POPS  H18T11348   2.925   4.676   4.190
  103POPS   C3311349   2.498   4.211   2.904
  103POPS   H3X11350   2.592   4.253   2.944
  103POPS   H3Y11351   2.524   4.143   2.819
  103POPS   C3411352   2.433   4.131   3.018
  103POPS   H4X11353   2.497   4.042   3.036
  103POPS   H4Y11354   2.333   4.095   2.987
  103POPS   C3511355   2.422   4.206   3.152
  103POPS   H5X11356   2.346   4.287   3.145
  103POPS   H5Y11357   2.519   4.253   3.176
  103POPS   C3611358   2.384   4.109   3.264
  103POPS   H6X11359   2.461   4.029   3.266
  103POPS   H6Y11360   2.287   4.061   3.239
  103POPS   C3711361   2.378   4.169   3.406
  103POPS   H7X11362   2.465   4.236   3.422
  103POPS   H7Y11363   2.387   4.082   3.475
  103POPS   C3811364   2.248   4.244   3.439
  103POPS   H8X11365   2.162   4.185   3.401
  103POPS   H8Y11366   2.248   4.339   3.382
  103POPS   C3911367   2.225   4.278   3.588
  103POPS   H9X11368   2.116   4.295   3.603
  103POPS   H9Y11369   2.277   4.373   3.612
  103POPS  C31011370   2.272   4.172   3.689
  103POPS  H10X11371   2.384   4.172   3.688
  103POPS  H10Y11372   2.240   4.070   3.657
  103POPS  C31111373   2.226   4.196   3.834
  103POPS  H11X11374   2.116   4.189   3.841
  103POPS  H11Y11375   2.255   4.300   3.860
  103POPS  C31211376   2.291   4.098   3.934
  103POPS  H12X11377   2.395   4.079   3.900
  103POPS  H12Y11378   2.240   3.999   3.935
  103POPS  C31311379   2.299   4.154   4.076
  103POPS  H13X11380   2.264   4.260   4.074
  103POPS  H13Y11381   2.405   4.153   4.109
  103POPS  C31411382   2.216   4.085   4.185
  103POPS  H14X11383   2.245   3.978   4.194
  103POPS  H14Y11384   2.108   4.089   4.158
  103POPS  C31511385   2.241   4.158   4.318
  103POPS  H15X11386   2.243   4.267   4.297
  103POPS  H15Y11387   2.341   4.131   4.356
  103POPS  C31611388   2.135   4.136   4.426
  103POPS  H16X11389   2.112   4.029   4.441
  103POPS  H16Y11390   2.041   4.186   4.395
  103POPS  H16Z11391   2.167   4.181   4.522
  104POPS     N11392   5.397   4.680   2.160
  104POPS   HN111393   5.427   4.732   2.245
  104POPS   HN211394   5.426   4.730   2.073
  104POPS   HN311395   5.294   4.672   2.160
  104POPS   C1211396   5.453   4.541   2.158
  104POPS  H12A11397   5.553   4.545   2.117
  104POPS   C1311398   5.368   4.447   2.068
  104POPS  O13A11399   5.262   4.490   2.015
  104POPS  O13B11400   5.406   4.329   2.051
  104POPS   C1111401   5.460   4.493   2.307
  104POPS  H11A11402   5.356   4.491   2.346
  104POPS  H11B11403   5.516   4.569   2.366
  104POPS     P11404   5.486   4.274   2.443
  104POPS   O1311405   5.566   4.149   2.436
  104POPS   O1411406   5.338   4.262   2.437
  104POPS   O1211407   5.528   4.368   2.321
  104POPS   O1111408   5.530   4.362   2.569
  104POPS    C111409   5.670   4.379   2.593
  104POPS    HA11410   5.715   4.444   2.515
  104POPS    HB11411   5.723   4.281   2.587
  104POPS    C211412   5.708   4.439   2.734
  104POPS    HS11413   5.818   4.423   2.747
  104POPS   O2111414   5.635   4.376   2.841
  104POPS   C2111415   5.671   4.251   2.866
  104POPS   O2211416   5.762   4.193   2.811
  104POPS   C2211417   5.590   4.196   2.982
  104POPS   H2R11418   5.484   4.228   2.970
  104POPS   H2S11419   5.630   4.240   3.075
  104POPS    C311420   5.685   4.592   2.744
  104POPS    HX11421   5.710   4.639   2.647
  104POPS    HY11422   5.756   4.631   2.820
  104POPS   O3111423   5.553   4.624   2.790
  104POPS   C3111424   5.459   4.641   2.699
  104POPS   O3211425   5.478   4.684   2.586
  104POPS   C3211426   5.324   4.597   2.756
  104POPS   H2X11427   5.303   4.497   2.713
  104POPS   H2Y11428   5.246   4.668   2.720
  104POPS   C2311429   5.598   4.042   2.986
  104POPS   H3R11430   5.704   4.008   2.993
  104POPS   H3S11431   5.556   4.002   2.892
  104POPS   C2411432   5.519   3.981   3.102
  104POPS   H4R11433   5.513   3.871   3.088
  104POPS   H4S11434   5.415   4.020   3.098
  104POPS   C2511435   5.577   4.010   3.241
  104POPS   H5R11436   5.585   4.120   3.256
  104POPS   H5S11437   5.679   3.967   3.250
  104POPS   C2611438   5.486   3.950   3.350
  104POPS   H6R11439   5.495   3.839   3.342
  104POPS   H6S11440   5.380   3.976   3.329
  104POPS   C2711441   5.521   3.989   3.494
  104POPS   H7R11442   5.628   3.967   3.512
  104POPS   H7S11443   5.463   3.922   3.561
  104POPS   C2811444   5.491   4.135   3.537
  104POPS   H8R11445   5.588   4.181   3.568
  104POPS   H8S11446   5.433   4.127   3.631
  104POPS   C2911447   5.416   4.226   3.442
  104POPS   H9111448   5.317   4.189   3.411
  104POPS  C21011449   5.460   4.344   3.395
  104POPS  H10111450   5.396   4.402   3.326
  104POPS  C21111451   5.594   4.405   3.428
  104POPS  H11R11452   5.672   4.342   3.381
  104POPS  H11S11453   5.612   4.402   3.537
  104POPS  C21211454   5.619   4.549   3.378
  104POPS  H12R11455   5.604   4.554   3.268
  104POPS  H12S11456   5.726   4.573   3.397
  104POPS  C21311457   5.535   4.660   3.444
  104POPS  H13R11458   5.430   4.654   3.407
  104POPS  H13S11459   5.576   4.758   3.411
  104POPS  C21411460   5.533   4.661   3.598
  104POPS  H14R11461   5.486   4.568   3.636
  104POPS  H14S11462   5.469   4.746   3.631
  104POPS  C21511463   5.673   4.678   3.658
  104POPS  H15R11464   5.729   4.752   3.599
  104POPS  H15S11465   5.727   4.581   3.651
  104POPS  C21611466   5.672   4.726   3.804
  104POPS  H16R11467   5.633   4.830   3.808
  104POPS  H16S11468   5.777   4.727   3.839
  104POPS  C21711469   5.591   4.639   3.901
  104POPS  H17R11470   5.486   4.631   3.866
  104POPS  H17S11471   5.588   4.690   4.000
  104POPS  C21811472   5.652   4.501   3.919
  104POPS  H18R11473   5.650   4.445   3.822
  104POPS  H18S11474   5.594   4.442   3.994
  104POPS  H18T11475   5.757   4.508   3.953
  104POPS   C3311476   5.320   4.587   2.911
  104POPS   H3X11477   5.328   4.689   2.955
  104POPS   H3Y11478   5.407   4.528   2.948
  104POPS   C3411479   5.194   4.516   2.963
  104POPS   H4X11480   5.196   4.411   2.926
  104POPS   H4Y11481   5.102   4.563   2.922
  104POPS   C3511482   5.183   4.511   3.117
  104POPS   H5X11483   5.280   4.474   3.157
  104POPS   H5Y11484   5.105   4.438   3.145
  104POPS   C3611485   5.150   4.646   3.183
  104POPS   H6X11486   5.050   4.682   3.151
  104POPS   H6Y11487   5.225   4.721   3.150
  104POPS   C3711488   5.157   4.639   3.336
  104POPS   H7X11489   5.168   4.742   3.378
  104POPS   H7Y11490   5.248   4.581   3.363
  104POPS   C3811491   5.035   4.572   3.403
  104POPS   H8X11492   5.019   4.472   3.359
  104POPS   H8Y11493   4.944   4.633   3.383
  104POPS   C3911494   5.053   4.556   3.556
  104POPS   H9X11495   4.957   4.519   3.598
  104POPS   H9Y11496   5.074   4.654   3.602
  104POPS  C31011497   5.164   4.457   3.591
  104POPS  H10X11498   5.261   4.496   3.555
  104POPS  H10Y11499   5.145   4.362   3.536
  104POPS  C31111500   5.179   4.424   3.740
  104POPS  H11X11501   5.083   4.386   3.781
  104POPS  H11Y11502   5.207   4.516   3.795
  104POPS  C31211503   5.289   4.318   3.756
  104POPS  H12X11504   5.379   4.357   3.704
  104POPS  H12Y11505   5.257   4.225   3.704
  104POPS  C31311506   5.329   4.283   3.900
  104POPS  H13X11507   5.249   4.223   3.949
  104POPS  H13Y11508   5.342   4.377   3.956
  104POPS  C31411509   5.462   4.206   3.901
  104POPS  H14X11510   5.535   4.262   3.839
  104POPS  H14Y11511   5.450   4.106   3.853
  104POPS  C31511512   5.523   4.187   4.040
  104POPS  H15X11513   5.496   4.274   4.104
  104POPS  H15Y11514   5.634   4.186   4.031
  104POPS  C31611515   5.479   4.058   4.107
  104POPS  H16X11516   5.537   4.038   4.200
  104POPS  H16Y11517   5.495   3.972   4.039
  104POPS  H16Z11518   5.371   4.064   4.134
  105POPS     N11519   3.680   2.028   2.441
  105POPS   HN111520   3.596   2.068   2.395
  105POPS   HN211521   3.669   1.926   2.454
  105POPS   HN311522   3.701   2.076   2.531
  105POPS   C1211523   3.795   2.054   2.347
  105POPS  H12A11524   3.886   2.047   2.405
  105POPS   C1311525   3.791   2.198   2.291
  105POPS  O13A11526   3.710   2.280   2.339
  105POPS  O13B11527   3.868   2.227   2.196
  105POPS   C1111528   3.797   1.947   2.232
  105POPS  H11A11529   3.892   1.891   2.246
  105POPS  H11B11530   3.806   1.996   2.133
  105POPS     P11531   3.698   1.703   2.233
  105POPS   O1311532   3.825   1.664   2.168
  105POPS   O1411533   3.576   1.636   2.183
  105POPS   O1211534   3.681   1.861   2.229
  105POPS   O1111535   3.706   1.684   2.389
  105POPS    C111536   3.796   1.591   2.450
  105POPS    HA11537   3.885   1.571   2.386
  105POPS    HB11538   3.745   1.494   2.466
  105POPS    C211539   3.853   1.647   2.583
  105POPS    HS11540   3.935   1.580   2.617
  105POPS   O2111541   3.756   1.659   2.686
  105POPS   C2111542   3.693   1.554   2.732
  105POPS   O2211543   3.701   1.440   2.690
  105POPS   C2211544   3.600   1.598   2.846
  105POPS   H2R11545   3.632   1.541   2.935
  105POPS   H2S11546   3.496   1.568   2.819
  105POPS    C311547   3.908   1.790   2.560
  105POPS    HX11548   3.818   1.847   2.530
  105POPS    HY11549   3.980   1.789   2.476
  105POPS   O3111550   3.970   1.845   2.678
  105POPS   C3111551   3.932   1.964   2.721
  105POPS   O3211552   3.851   2.037   2.665
  105POPS   C3211553   4.018   2.001   2.843
  105POPS   H2X11554   4.097   2.068   2.802
  105POPS   H2Y11555   4.066   1.910   2.883
  105POPS   C2311556   3.606   1.749   2.882
  105POPS   H3R11557   3.712   1.775   2.905
  105POPS   H3S11558   3.548   1.766   2.976
  105POPS   C2411559   3.552   1.844   2.774
  105POPS   H4R11560   3.442   1.829   2.761
  105POPS   H4S11561   3.598   1.820   2.676
  105POPS   C2511562   3.585   1.991   2.805
  105POPS   H5R11563   3.619   2.043   2.714
  105POPS   H5S11564   3.667   1.996   2.879
  105POPS   C2611565   3.464   2.067   2.857
  105POPS   H6R11566   3.397   1.994   2.906
  105POPS   H6S11567   3.413   2.110   2.768
  105POPS   C2711568   3.492   2.180   2.957
  105POPS   H7R11569   3.409   2.254   2.952
  105POPS   H7S11570   3.585   2.231   2.927
  105POPS   C2811571   3.500   2.128   3.101
  105POPS   H8R11572   3.571   2.042   3.100
  105POPS   H8S11573   3.402   2.089   3.135
  105POPS   C2911574   3.551   2.236   3.193
  105POPS   H9111575   3.610   2.313   3.142
  105POPS  C21011576   3.536   2.248   3.326
  105POPS  H10111577   3.587   2.332   3.374
  105POPS  C21111578   3.465   2.159   3.426
  105POPS  H11R11579   3.512   2.058   3.431
  105POPS  H11S11580   3.357   2.147   3.402
  105POPS  C21211581   3.481   2.230   3.562
  105POPS  H12R11582   3.429   2.328   3.560
  105POPS  H12S11583   3.589   2.249   3.581
  105POPS  C21311584   3.430   2.154   3.684
  105POPS  H13R11585   3.472   2.051   3.682
  105POPS  H13S11586   3.320   2.146   3.680
  105POPS  C21411587   3.472   2.221   3.817
  105POPS  H14R11588   3.383   2.232   3.881
  105POPS  H14S11589   3.511   2.323   3.796
  105POPS  C21511590   3.579   2.142   3.895
  105POPS  H15R11591   3.536   2.043   3.922
  105POPS  H15S11592   3.601   2.194   3.990
  105POPS  C21611593   3.711   2.119   3.820
  105POPS  H16R11594   3.770   2.212   3.818
  105POPS  H16S11595   3.689   2.091   3.714
  105POPS  C21711596   3.794   2.004   3.880
  105POPS  H17R11597   3.883   1.989   3.816
  105POPS  H17S11598   3.732   1.912   3.873
  105POPS  C21811599   3.837   2.024   4.025
  105POPS  H18R11600   3.749   2.035   4.092
  105POPS  H18S11601   3.900   2.115   4.034
  105POPS  H18T11602   3.896   1.937   4.060
  105POPS   C3311603   3.948   2.079   2.957
  105POPS   H3X11604   3.873   2.151   2.919
  105POPS   H3Y11605   4.027   2.138   3.008
  105POPS   C3411606   3.886   1.990   3.066
  105POPS   H4X11607   3.957   1.908   3.093
  105POPS   H4Y11608   3.793   1.941   3.030
  105POPS   C3511609   3.854   2.071   3.193
  105POPS   H5X11610   3.797   2.161   3.163
  105POPS   H5Y11611   3.948   2.111   3.236
  105POPS   C3611612   3.774   1.997   3.303
  105POPS   H6X11613   3.667   1.999   3.274
  105POPS   H6Y11614   3.783   2.053   3.398
  105POPS   C3711615   3.803   1.848   3.329
  105POPS   H7X11616   3.900   1.834   3.383
  105POPS   H7Y11617   3.808   1.792   3.233
  105POPS   C3811618   3.692   1.788   3.415
  105POPS   H8X11619   3.594   1.810   3.367
  105POPS   H8Y11620   3.692   1.837   3.515
  105POPS   C3911621   3.701   1.636   3.434
  105POPS   H9X11622   3.790   1.613   3.497
  105POPS   H9Y11623   3.715   1.586   3.336
  105POPS  C31011624   3.573   1.585   3.500
  105POPS  H10X11625   3.489   1.612   3.432
  105POPS  H10Y11626   3.558   1.638   3.596
  105POPS  C31111627   3.563   1.433   3.524
  105POPS  H11X11628   3.543   1.385   3.426
  105POPS  H11Y11629   3.475   1.413   3.589
  105POPS  C31211630   3.687   1.370   3.586
  105POPS  H12X11631   3.771   1.379   3.514
  105POPS  H12Y11632   3.670   1.262   3.603
  105POPS  C31311633   3.727   1.432   3.719
  105POPS  H13X11634   3.690   1.369   3.803
  105POPS  H13Y11635   3.677   1.531   3.730
  105POPS  C31411636   3.878   1.452   3.729
  105POPS  H14X11637   3.915   1.509   3.642
  105POPS  H14Y11638   3.930   1.354   3.727
  105POPS  C31511639   3.912   1.528   3.856
  105POPS  H15X11640   4.022   1.525   3.870
  105POPS  H15Y11641   3.867   1.474   3.942
  105POPS  C31611642   3.865   1.673   3.853
  105POPS  H16X11643   3.908   1.730   3.939
  105POPS  H16Y11644   3.754   1.680   3.859
  105POPS  H16Z11645   3.898   1.722   3.759
  106POPS     N11646   5.235   5.845   2.058
  106POPS   HN111647   5.226   5.744   2.083
  106POPS   HN211648   5.209   5.865   1.960
  106POPS   HN311649   5.333   5.875   2.075
  106POPS   C1211650   5.146   5.922   2.149
  106POPS  H12A11651   5.049   5.874   2.147
  106POPS   C1311652   5.126   6.068   2.099
  106POPS  O13A11653   5.204   6.115   2.012
  106POPS  O13B11654   5.026   6.133   2.140
  106POPS   C1111655   5.206   5.911   2.292
  106POPS  H11A11656   5.130   5.944   2.367
  106POPS  H11B11657   5.292   5.981   2.300
  106POPS     P11658   5.213   5.681   2.433
  106POPS   O1311659   5.205   5.544   2.375
  106POPS   O1411660   5.091   5.731   2.499
  106POPS   O1211661   5.253   5.777   2.315
  106POPS   O1111662   5.338   5.691   2.532
  106POPS    C111663   5.411   5.815   2.536
  106POPS    HA11664   5.340   5.899   2.554
  106POPS    HB11665   5.462   5.833   2.439
  106POPS    C211666   5.522   5.827   2.646
  106POPS    HS11667   5.600   5.751   2.625
  106POPS   O2111668   5.463   5.808   2.777
  106POPS   C2111669   5.530   5.729   2.861
  106POPS   O2211670   5.642   5.685   2.843
  106POPS   C2211671   5.441   5.691   2.980
  106POPS   H2R11672   5.348   5.647   2.938
  106POPS   H2S11673   5.414   5.785   3.033
  106POPS    C311674   5.594   5.965   2.630
  106POPS    HX11675   5.664   5.955   2.545
  106POPS    HY11676   5.657   5.989   2.718
  106POPS   O3111677   5.497   6.067   2.596
  106POPS   C3111678   5.446   6.131   2.700
  106POPS   O3211679   5.503   6.149   2.807
  106POPS   C3211680   5.301   6.169   2.670
  106POPS   H2X11681   5.262   6.106   2.588
  106POPS   H2Y11682   5.302   6.275   2.637
  106POPS   C2311683   5.505   5.589   3.080
  106POPS   H3R11684   5.599   5.630   3.122
  106POPS   H3S11685   5.535   5.497   3.026
  106POPS   C2411686   5.406   5.551   3.192
  106POPS   H4R11687   5.366   5.449   3.174
  106POPS   H4S11688   5.320   5.620   3.183
  106POPS   C2511689   5.460   5.563   3.337
  106POPS   H5R11690   5.548   5.630   3.337
  106POPS   H5S11691   5.493   5.463   3.373
  106POPS   C2611692   5.354   5.622   3.432
  106POPS   H6R11693   5.275   5.545   3.445
  106POPS   H6S11694   5.307   5.708   3.379
  106POPS   C2711695   5.401   5.668   3.571
  106POPS   H7R11696   5.496   5.616   3.599
  106POPS   H7S11697   5.325   5.635   3.645
  106POPS   C2811698   5.424   5.820   3.596
  106POPS   H8R11699   5.520   5.847   3.547
  106POPS   H8S11700   5.442   5.833   3.705
  106POPS   C2911701   5.316   5.914   3.550
  106POPS   H9111702   5.244   5.874   3.477
  106POPS  C21011703   5.301   6.042   3.591
  106POPS  H10111704   5.218   6.101   3.550
  106POPS  C21111705   5.391   6.112   3.689
  106POPS  H11R11706   5.400   6.219   3.665
  106POPS  H11S11707   5.494   6.070   3.682
  106POPS  C21211708   5.340   6.097   3.835
  106POPS  H12R11709   5.295   5.997   3.850
  106POPS  H12S11710   5.259   6.171   3.851
  106POPS  C21311711   5.449   6.118   3.941
  106POPS  H13R11712   5.401   6.120   4.041
  106POPS  H13S11713   5.495   6.218   3.924
  106POPS  C21411714   5.560   6.011   3.943
  106POPS  H14R11715   5.638   6.041   4.017
  106POPS  H14S11716   5.609   6.010   3.843
  106POPS  C21511717   5.516   5.867   3.974
  106POPS  H15R11718   5.583   5.799   3.918
  106POPS  H15S11719   5.413   5.848   3.937
  106POPS  C21611720   5.528   5.831   4.123
  106POPS  H16R11721   5.463   5.898   4.183
  106POPS  H16S11722   5.632   5.850   4.155
  106POPS  C21711723   5.491   5.683   4.149
  106POPS  H17R11724   5.522   5.622   4.062
  106POPS  H17S11725   5.380   5.675   4.152
  106POPS  C21811726   5.547   5.621   4.277
  106POPS  H18R11727   5.472   5.552   4.323
  106POPS  H18S11728   5.573   5.699   4.352
  106POPS  H18T11729   5.639   5.562   4.256
  106POPS   C3311730   5.214   6.153   2.797
  106POPS   H3X11731   5.119   6.210   2.783
  106POPS   H3Y11732   5.267   6.199   2.883
  106POPS   C3411733   5.180   6.010   2.840
  106POPS   H4X11734   5.270   5.945   2.827
  106POPS   H4Y11735   5.099   5.969   2.775
  106POPS   C3511736   5.140   6.008   2.988
  106POPS   H5X11737   5.062   6.085   3.006
  106POPS   H5Y11738   5.228   6.037   3.048
  106POPS   C3611739   5.089   5.872   3.036
  106POPS   H6X11740   5.160   5.792   3.005
  106POPS   H6Y11741   4.992   5.851   2.986
  106POPS   C3711742   5.070   5.866   3.189
  106POPS   H7X11743   5.016   5.956   3.223
  106POPS   H7Y11744   5.170   5.865   3.237
  106POPS   C3811745   4.991   5.741   3.231
  106POPS   H8X11746   5.032   5.654   3.176
  106POPS   H8Y11747   4.885   5.753   3.198
  106POPS   C3911748   4.994   5.708   3.381
  106POPS   H9X11749   5.097   5.676   3.407
  106POPS   H9Y11750   4.927   5.622   3.398
  106POPS  C31011751   4.952   5.821   3.477
  106POPS  H10X11752   4.857   5.864   3.441
  106POPS  H10Y11753   5.027   5.903   3.476
  106POPS  C31111754   4.933   5.769   3.621
  106POPS  H11X11755   4.863   5.683   3.619
  106POPS  H11Y11756   4.886   5.849   3.683
  106POPS  C31211757   5.062   5.722   3.689
  106POPS  H12X11758   5.128   5.810   3.706
  106POPS  H12Y11759   5.114   5.651   3.622
  106POPS  C31311760   5.040   5.651   3.824
  106POPS  H13X11761   4.971   5.566   3.809
  106POPS  H13Y11762   4.992   5.723   3.894
  106POPS  C31411763   5.173   5.601   3.884
  106POPS  H14X11764   5.234   5.689   3.912
  106POPS  H14Y11765   5.230   5.546   3.806
  106POPS  C31511766   5.159   5.506   4.004
  106POPS  H15X11767   5.247   5.523   4.071
  106POPS  H15Y11768   5.167   5.401   3.969
  106POPS  C31611769   5.030   5.521   4.085
  106POPS  H16X11770   5.042   5.476   4.186
  106POPS  H16Y11771   4.946   5.470   4.033
  106POPS  H16Z11772   5.003   5.628   4.097
  107POPS     N11773   6.599   4.055   2.455
  107POPS   HN111774   6.499   4.078   2.440
  107POPS   HN211775   6.604   3.963   2.503
  107POPS   HN311776   6.650   4.126   2.512
  107POPS   C1211777   6.667   4.020   2.327
  107POPS  H12A11778   6.615   4.064   2.243
  107POPS   C1311779   6.656   3.866   2.308
  107POPS  O13A11780   6.605   3.800   2.403
  107POPS  O13B11781   6.687   3.816   2.198
  107POPS   C1111782   6.810   4.080   2.337
  107POPS  H11A11783   6.855   4.053   2.435
  107POPS  H11B11784   6.794   4.190   2.335
  107POPS     P11785   7.016   4.136   2.191
  107POPS   O1311786   6.959   4.210   2.075
  107POPS   O1411787   7.142   4.064   2.163
  107POPS   O1211788   6.901   4.038   2.236
  107POPS   O1111789   7.031   4.237   2.312
  107POPS    C111790   7.122   4.217   2.421
  107POPS    HA11791   7.205   4.289   2.411
  107POPS    HB11792   7.167   4.115   2.423
  107POPS    C211793   7.053   4.245   2.559
  107POPS    HS11794   7.131   4.282   2.629
  107POPS   O2111795   6.988   4.127   2.609
  107POPS   C2111796   7.062   4.049   2.687
  107POPS   O2211797   7.178   4.070   2.719
  107POPS   C2211798   6.976   3.934   2.740
  107POPS   H2R11799   6.990   3.931   2.850
  107POPS   H2S11800   7.018   3.840   2.697
  107POPS    C311801   6.945   4.356   2.548
  107POPS    HX11802   6.866   4.324   2.478
  107POPS    HY11803   6.993   4.445   2.504
  107POPS   O3111804   6.894   4.388   2.679
  107POPS   C3111805   6.783   4.327   2.719
  107POPS   O3211806   6.707   4.263   2.647
  107POPS   C3211807   6.770   4.349   2.871
  107POPS   H2X11808   6.799   4.454   2.892
  107POPS   H2Y11809   6.843   4.282   2.921
  107POPS   C2311810   6.825   3.944   2.706
  107POPS   H3R11811   6.814   3.946   2.595
  107POPS   H3S11812   6.783   4.038   2.749
  107POPS   C2411813   6.745   3.823   2.754
  107POPS   H4R11814   6.781   3.798   2.856
  107POPS   H4S11815   6.770   3.739   2.686
  107POPS   C2511816   6.592   3.837   2.756
  107POPS   H5R11817   6.550   3.735   2.766
  107POPS   H5S11818   6.558   3.877   2.658
  107POPS   C2611819   6.537   3.919   2.873
  107POPS   H6R11820   6.429   3.938   2.856
  107POPS   H6S11821   6.589   4.017   2.877
  107POPS   C2711822   6.553   3.846   3.008
  107POPS   H7R11823   6.661   3.838   3.032
  107POPS   H7S11824   6.513   3.743   2.997
  107POPS   C2811825   6.481   3.917   3.123
  107POPS   H8R11826   6.371   3.914   3.103
  107POPS   H8S11827   6.510   4.024   3.121
  107POPS   C2911828   6.509   3.856   3.259
  107POPS   H9111829   6.431   3.788   3.294
  107POPS  C21011830   6.618   3.876   3.337
  107POPS  H10111831   6.619   3.830   3.436
  107POPS  C21111832   6.737   3.963   3.307
  107POPS  H11R11833   6.727   4.055   3.369
  107POPS  H11S11834   6.729   3.995   3.201
  107POPS  C21211835   6.887   3.924   3.318
  107POPS  H12R11836   6.941   4.007   3.268
  107POPS  H12S11837   6.906   3.833   3.256
  107POPS  C21311838   6.958   3.908   3.456
  107POPS  H13R11839   7.063   3.941   3.441
  107POPS  H13S11840   6.967   3.801   3.484
  107POPS  C21411841   6.902   3.981   3.580
  107POPS  H14R11842   6.830   4.060   3.551
  107POPS  H14S11843   6.988   4.032   3.629
  107POPS  C21511844   6.843   3.883   3.684
  107POPS  H15R11845   6.910   3.795   3.689
  107POPS  H15S11846   6.744   3.846   3.650
  107POPS  C21611847   6.833   3.937   3.828
  107POPS  H16R11848   6.733   3.983   3.844
  107POPS  H16S11849   6.909   4.017   3.843
  107POPS  C21711850   6.857   3.827   3.932
  107POPS  H17R11851   6.964   3.796   3.924
  107POPS  H17S11852   6.795   3.738   3.907
  107POPS  C21811853   6.829   3.868   4.076
  107POPS  H18R11854   6.719   3.869   4.097
  107POPS  H18S11855   6.868   3.970   4.095
  107POPS  H18T11856   6.877   3.798   4.148
  107POPS   C3311857   6.629   4.324   2.928
  107POPS   H3X11858   6.598   4.218   2.915
  107POPS   H3Y11859   6.557   4.386   2.870
  107POPS   C3411860   6.613   4.365   3.076
  107POPS   H4X11861   6.503   4.370   3.092
  107POPS   H4Y11862   6.656   4.465   3.094
  107POPS   C3511863   6.661   4.265   3.183
  107POPS   H5X11864   6.763   4.292   3.219
  107POPS   H5Y11865   6.669   4.168   3.130
  107POPS   C3611866   6.563   4.248   3.303
  107POPS   H6X11867   6.527   4.143   3.301
  107POPS   H6Y11868   6.472   4.309   3.288
  107POPS   C3711869   6.619   4.274   3.444
  107POPS   H7X11870   6.629   4.383   3.463
  107POPS   H7Y11871   6.722   4.233   3.453
  107POPS   C3811872   6.531   4.210   3.554
  107POPS   H8X11873   6.501   4.109   3.518
  107POPS   H8Y11874   6.438   4.269   3.565
  107POPS   C3911875   6.598   4.190   3.691
  107POPS   H9X11876   6.690   4.129   3.678
  107POPS   H9Y11877   6.530   4.133   3.756
  107POPS  C31011878   6.637   4.320   3.764
  107POPS  H10X11879   6.542   4.371   3.791
  107POPS  H10Y11880   6.696   4.386   3.698
  107POPS  C31111881   6.711   4.298   3.896
  107POPS  H11X11882   6.810   4.250   3.879
  107POPS  H11Y11883   6.651   4.228   3.958
  107POPS  C31211884   6.729   4.431   3.972
  107POPS  H12X11885   6.641   4.496   3.954
  107POPS  H12Y11886   6.818   4.483   3.932
  107POPS  C31311887   6.744   4.413   4.124
  107POPS  H13X11888   6.782   4.507   4.170
  107POPS  H13Y11889   6.821   4.335   4.142
  107POPS  C31411890   6.612   4.374   4.193
  107POPS  H14X11891   6.541   4.334   4.117
  107POPS  H14Y11892   6.565   4.466   4.235
  107POPS  C31511893   6.628   4.268   4.303
  107POPS  H15X11894   6.531   4.261   4.357
  107POPS  H15Y11895   6.705   4.302   4.375
  107POPS  C31611896   6.662   4.129   4.250
  107POPS  H16X11897   6.753   4.133   4.185
  107POPS  H16Y11898   6.579   4.089   4.188
  107POPS  H16Z11899   6.682   4.058   4.333
  108POPS     N11900   1.269   2.842   2.429
  108POPS   HN111901   1.347   2.880   2.372
  108POPS   HN211902   1.197   2.914   2.448
  108POPS   HN311903   1.305   2.799   2.517
  108POPS   C1211904   1.201   2.739   2.344
  108POPS  H12A11905   1.161   2.663   2.409
  108POPS   C1311906   1.294   2.673   2.240
  108POPS  O13A11907   1.415   2.705   2.237
  108POPS  O13B11908   1.243   2.591   2.159
  108POPS   C1111909   1.084   2.811   2.272
  108POPS  H11A11910   1.021   2.734   2.224
  108POPS  H11B11911   1.126   2.877   2.192
  108POPS     P11912   0.879   2.964   2.315
  108POPS   O1311913   0.829   2.901   2.190
  108POPS   O1411914   0.913   3.107   2.306
  108POPS   O1211915   1.009   2.889   2.366
  108POPS   O1111916   0.779   2.939   2.434
  108POPS    C111917   0.802   2.987   2.567
  108POPS    HA11918   0.706   3.023   2.608
  108POPS    HB11919   0.871   3.074   2.568
  108POPS    C211920   0.859   2.880   2.666
  108POPS    HS11921   0.953   2.842   2.620
  108POPS   O2111922   0.766   2.770   2.685
  108POPS   C2111923   0.825   2.661   2.738
  108POPS   O2211924   0.945   2.655   2.764
  108POPS   C2211925   0.727   2.544   2.756
  108POPS   H2R11926   0.760   2.465   2.685
  108POPS   H2S11927   0.625   2.577   2.728
  108POPS    C311928   0.895   2.948   2.803
  108POPS    HX11929   1.002   2.978   2.798
  108POPS    HY11930   0.886   2.870   2.881
  108POPS   O3111931   0.814   3.065   2.830
  108POPS   C3111932   0.802   3.094   2.961
  108POPS   O3211933   0.847   3.026   3.050
  108POPS   C3211934   0.725   3.225   2.979
  108POPS   H2X11935   0.634   3.219   2.916
  108POPS   H2Y11936   0.789   3.309   2.944
  108POPS   C2311937   0.722   2.482   2.899
  108POPS   H3R11938   0.819   2.496   2.951
  108POPS   H3S11939   0.703   2.373   2.892
  108POPS   C2411940   0.606   2.546   2.977
  108POPS   H4R11941   0.509   2.511   2.935
  108POPS   H4S11942   0.615   2.654   2.953
  108POPS   C2511943   0.603   2.532   3.130
  108POPS   H5R11944   0.575   2.428   3.157
  108POPS   H5S11945   0.522   2.599   3.169
  108POPS   C2611946   0.733   2.568   3.203
  108POPS   H6R11947   0.803   2.485   3.183
  108POPS   H6S11948   0.716   2.569   3.313
  108POPS   C2711949   0.801   2.700   3.162
  108POPS   H7R11950   0.765   2.785   3.225
  108POPS   H7S11951   0.780   2.727   3.056
  108POPS   C2811952   0.952   2.680   3.176
  108POPS   H8R11953   0.975   2.591   3.114
  108POPS   H8S11954   0.968   2.653   3.282
  108POPS   C2911955   1.045   2.789   3.133
  108POPS   H9111956   1.012   2.851   3.049
  108POPS  C21011957   1.163   2.815   3.192
  108POPS  H10111958   1.226   2.894   3.148
  108POPS  C21111959   1.226   2.746   3.310
  108POPS  H11R11960   1.326   2.791   3.322
  108POPS  H11S11961   1.245   2.639   3.284
  108POPS  C21211962   1.157   2.747   3.449
  108POPS  H12R11963   1.235   2.742   3.528
  108POPS  H12S11964   1.097   2.655   3.459
  108POPS  C21311965   1.063   2.864   3.481
  108POPS  H13R11966   1.114   2.961   3.465
  108POPS  H13S11967   0.978   2.859   3.409
  108POPS  C21411968   1.004   2.860   3.624
  108POPS  H14R11969   0.961   2.759   3.644
  108POPS  H14S11970   0.922   2.934   3.628
  108POPS  C21511971   1.102   2.900   3.736
  108POPS  H15R11972   1.169   2.976   3.692
  108POPS  H15S11973   1.164   2.813   3.767
  108POPS  C21611974   1.038   2.971   3.857
  108POPS  H16R11975   1.051   2.909   3.948
  108POPS  H16S11976   0.930   2.985   3.841
  108POPS  C21711977   1.099   3.110   3.879
  108POPS  H17R11978   1.087   3.169   3.785
  108POPS  H17S11979   1.207   3.100   3.899
  108POPS  C21811980   1.032   3.187   3.993
  108POPS  H18R11981   1.077   3.288   4.002
  108POPS  H18S11982   1.044   3.134   4.089
  108POPS  H18T11983   0.923   3.200   3.972
  108POPS   C3311984   0.682   3.249   3.126
  108POPS   H3X11985   0.636   3.157   3.168
  108POPS   H3Y11986   0.605   3.329   3.128
  108POPS   C3411987   0.796   3.294   3.218
  108POPS   H4X11988   0.836   3.390   3.181
  108POPS   H4Y11989   0.877   3.217   3.215
  108POPS   C3511990   0.755   3.307   3.365
  108POPS   H5X11991   0.644   3.307   3.372
  108POPS   H5Y11992   0.792   3.405   3.402
  108POPS   C3611993   0.812   3.197   3.456
  108POPS   H6X11994   0.805   3.228   3.562
  108POPS   H6Y11995   0.920   3.184   3.434
  108POPS   C3711996   0.740   3.062   3.438
  108POPS   H7X11997   0.803   2.979   3.478
  108POPS   H7Y11998   0.729   3.041   3.330
  108POPS   C3811999   0.603   3.053   3.507
  108POPS   H8X12000   0.559   2.954   3.481
  108POPS   H8Y12001   0.538   3.132   3.465
  108POPS   C3912002   0.604   3.062   3.660
  108POPS   H9X12003   0.667   3.147   3.695
  108POPS   H9Y12004   0.651   2.971   3.703
  108POPS  C31012005   0.462   3.078   3.717
  108POPS  H10X12006   0.411   2.979   3.722
  108POPS  H10Y12007   0.403   3.138   3.644
  108POPS  C31112008   0.451   3.151   3.852
  108POPS  H11X12009   0.345   3.184   3.860
  108POPS  H11Y12010   0.513   3.244   3.853
  108POPS  C31212011   0.481   3.066   3.976
  108POPS  H12X12012   0.441   2.965   3.954
  108POPS  H12Y12013   0.425   3.106   4.063
  108POPS  C31312014   0.629   3.061   4.016
  108POPS  H13X12015   0.663   3.162   4.047
  108POPS  H13Y12016   0.690   3.036   3.926
  108POPS  C31412017   0.660   2.960   4.128
  108POPS  H14X12018   0.674   3.014   4.225
  108POPS  H14Y12019   0.757   2.910   4.106
  108POPS  C31512020   0.552   2.853   4.153
  108POPS  H15X12021   0.528   2.799   4.059
  108POPS  H15Y12022   0.459   2.903   4.189
  108POPS  C31612023   0.595   2.749   4.256
  108POPS  H16X12024   0.643   2.798   4.343
  108POPS  H16Y12025   0.670   2.680   4.210
  108POPS  H16Z12026   0.508   2.690   4.292
  109POPS     N12027   5.554   6.479   2.093
  109POPS   HN112028   5.504   6.392   2.063
  109POPS   HN212029   5.484   6.547   2.128
  109POPS   HN312030   5.605   6.519   2.011
  109POPS   C1212031   5.643   6.451   2.207
  109POPS  H12A12032   5.714   6.533   2.214
  109POPS   C1312033   5.726   6.322   2.193
  109POPS  O13A12034   5.710   6.247   2.092
  109POPS  O13B12035   5.814   6.300   2.279
  109POPS   C1112036   5.554   6.458   2.333
  109POPS  H11A12037   5.615   6.445   2.425
  109POPS  H11B12038   5.479   6.375   2.331
  109POPS     P12039   5.370   6.622   2.429
  109POPS   O1312040   5.333   6.502   2.505
  109POPS   O1412041   5.267   6.685   2.343
  109POPS   O1212042   5.491   6.586   2.333
  109POPS   O1112043   5.436   6.730   2.523
  109POPS    C112044   5.453   6.866   2.479
  109POPS    HA12045   5.355   6.919   2.480
  109POPS    HB12046   5.493   6.870   2.376
  109POPS    C212047   5.552   6.947   2.571
  109POPS    HS12048   5.595   7.030   2.511
  109POPS   O2112049   5.656   6.865   2.622
  109POPS   C2112050   5.717   6.787   2.537
  109POPS   O2212051   5.749   6.813   2.422
  109POPS   C2212052   5.741   6.655   2.610
  109POPS   H2R12053   5.646   6.598   2.609
  109POPS   H2S12054   5.762   6.681   2.716
  109POPS    C312055   5.481   7.011   2.693
  109POPS    HX12056   5.433   7.103   2.655
  109POPS    HY12057   5.555   7.042   2.769
  109POPS   O3112058   5.380   6.923   2.748
  109POPS   C3112059   5.424   6.829   2.829
  109POPS   O3212060   5.531   6.831   2.888
  109POPS   C3212061   5.322   6.715   2.834
  109POPS   H2X12062   5.286   6.696   2.731
  109POPS   H2Y12063   5.236   6.747   2.897
  109POPS   C2312064   5.856   6.571   2.553
  109POPS   H3R12065   5.927   6.638   2.500
  109POPS   H3S12066   5.818   6.496   2.480
  109POPS   C2412067   5.932   6.503   2.666
  109POPS   H4R12068   5.948   6.575   2.749
  109POPS   H4S12069   6.032   6.472   2.628
  109POPS   C2512070   5.867   6.380   2.729
  109POPS   H5R12071   5.949   6.337   2.789
  109POPS   H5S12072   5.838   6.309   2.648
  109POPS   C2612073   5.748   6.398   2.826
  109POPS   H6R12074   5.700   6.299   2.842
  109POPS   H6S12075   5.671   6.462   2.778
  109POPS   C2712076   5.784   6.453   2.966
  109POPS   H7R12077   5.886   6.497   2.959
  109POPS   H7S12078   5.792   6.370   3.040
  109POPS   C2812079   5.681   6.556   3.017
  109POPS   H8R12080   5.593   6.498   3.051
  109POPS   H8S12081   5.652   6.614   2.927
  109POPS   C2912082   5.720   6.662   3.117
  109POPS   H9112083   5.806   6.723   3.087
  109POPS  C21012084   5.656   6.697   3.230
  109POPS  H10112085   5.698   6.780   3.290
  109POPS  C21112086   5.529   6.638   3.286
  109POPS  H11R12087   5.457   6.618   3.204
  109POPS  H11S12088   5.479   6.710   3.354
  109POPS  C21212089   5.556   6.508   3.363
  109POPS  H12R12090   5.611   6.438   3.297
  109POPS  H12S12091   5.459   6.459   3.389
  109POPS  C21312092   5.636   6.530   3.492
  109POPS  H13R12093   5.692   6.626   3.484
  109POPS  H13S12094   5.710   6.448   3.502
  109POPS  C21412095   5.551   6.534   3.619
  109POPS  H14R12096   5.503   6.435   3.635
  109POPS  H14S12097   5.470   6.609   3.606
  109POPS  C21512098   5.635   6.572   3.741
  109POPS  H15R12099   5.688   6.667   3.719
  109POPS  H15S12100   5.711   6.493   3.759
  109POPS  C21612101   5.547   6.592   3.865
  109POPS  H16R12102   5.491   6.498   3.883
  109POPS  H16S12103   5.473   6.671   3.842
  109POPS  C21712104   5.621   6.630   3.994
  109POPS  H17R12105   5.614   6.544   4.064
  109POPS  H17S12106   5.567   6.715   4.040
  109POPS  C21812107   5.766   6.673   3.980
  109POPS  H18R12108   5.810   6.689   4.081
  109POPS  H18S12109   5.771   6.769   3.924
  109POPS  H18T12110   5.827   6.597   3.927
  109POPS   C3312111   5.388   6.588   2.890
  109POPS   H3X12112   5.419   6.605   2.996
  109POPS   H3Y12113   5.479   6.570   2.829
  109POPS   C3412114   5.308   6.457   2.880
  109POPS   H4X12115   5.382   6.374   2.884
  109POPS   H4Y12116   5.259   6.455   2.780
  109POPS   C3512117   5.205   6.434   2.991
  109POPS   H5X12118   5.130   6.360   2.956
  109POPS   H5Y12119   5.151   6.530   3.006
  109POPS   C3612120   5.262   6.384   3.124
  109POPS   H6X12121   5.329   6.462   3.166
  109POPS   H6Y12122   5.324   6.293   3.108
  109POPS   C3712123   5.152   6.352   3.226
  109POPS   H7X12124   5.116   6.248   3.211
  109POPS   H7Y12125   5.066   6.419   3.207
  109POPS   C3812126   5.193   6.373   3.373
  109POPS   H8X12127   5.234   6.476   3.384
  109POPS   H8Y12128   5.272   6.301   3.401
  109POPS   C3912129   5.071   6.358   3.465
  109POPS   H9X12130   5.028   6.257   3.445
  109POPS   H9Y12131   4.995   6.434   3.437
  109POPS  C31012132   5.098   6.368   3.615
  109POPS  H10X12133   5.163   6.283   3.646
  109POPS  H10Y12134   5.002   6.356   3.670
  109POPS  C31112135   5.165   6.498   3.660
  109POPS  H11X12136   5.100   6.585   3.640
  109POPS  H11Y12137   5.259   6.512   3.601
  109POPS  C31212138   5.204   6.492   3.808
  109POPS  H12X12139   5.276   6.574   3.827
  109POPS  H12Y12140   5.257   6.396   3.828
  109POPS  C31312141   5.085   6.509   3.903
  109POPS  H13X12142   4.999   6.448   3.868
  109POPS  H13Y12143   5.054   6.615   3.898
  109POPS  C31412144   5.115   6.466   4.049
  109POPS  H14X12145   5.103   6.356   4.055
  109POPS  H14Y12146   5.039   6.512   4.116
  109POPS  C31512147   5.256   6.499   4.101
  109POPS  H15X12148   5.331   6.442   4.042
  109POPS  H15Y12149   5.263   6.460   4.205
  109POPS  C31612150   5.295   6.646   4.101
  109POPS  H16X12151   5.287   6.693   4.001
  109POPS  H16Y12152   5.399   6.657   4.138
  109POPS  H16Z12153   5.231   6.704   4.172
  110POPS     N12154   4.001   0.449   2.125
  110POPS   HN112155   4.012   0.438   2.023
  110POPS   HN212156   4.080   0.403   2.174
  110POPS   HN312157   3.911   0.410   2.161
  110POPS   C1212158   4.000   0.593   2.164
  110POPS  H12A12159   3.917   0.640   2.113
  110POPS   C1312160   4.128   0.668   2.120
  110POPS  O13A12161   4.223   0.602   2.069
  110POPS  O13B12162   4.129   0.794   2.127
  110POPS   C1112163   3.965   0.593   2.316
  110POPS  H11A12164   3.952   0.698   2.351
  110POPS  H11B12165   4.048   0.549   2.375
  110POPS     P12166   3.762   0.510   2.466
  110POPS   O1312167   3.621   0.529   2.429
  110POPS   O1412168   3.823   0.601   2.566
  110POPS   O1212169   3.846   0.516   2.332
  110POPS   O1112170   3.782   0.358   2.507
  110POPS    C112171   3.717   0.259   2.426
  110POPS    HA12172   3.740   0.274   2.318
  110POPS    HB12173   3.607   0.267   2.439
  110POPS    C212174   3.760   0.114   2.461
  110POPS    HS12175   3.694   0.042   2.407
  110POPS   O2112176   3.755   0.086   2.601
  110POPS   C2112177   3.660   0.130   2.678
  110POPS   O2212178   3.544   0.148   2.645
  110POPS   C2212179   3.721   0.149   2.817
  110POPS   H2R12180   3.765   0.251   2.821
  110POPS   H2S12181   3.803   0.075   2.830
  110POPS    C312182   3.907   0.086   2.416
  110POPS    HX12183   3.909   0.086   2.305
  110POPS    HY12184   3.937  -0.016   2.449
  110POPS   O3112185   4.000   0.187   2.462
  110POPS   C3112186   4.031   0.176   2.592
  110POPS   O3212187   4.006   0.078   2.661
  110POPS   C3212188   4.112   0.297   2.638
  110POPS   H2X12189   4.144   0.352   2.547
  110POPS   H2Y12190   4.202   0.257   2.690
  110POPS   C2312191   3.619   0.131   2.931
  110POPS   H3R12192   3.573   0.030   2.924
  110POPS   H3S12193   3.538   0.206   2.918
  110POPS   C2412194   3.682   0.147   3.071
  110POPS   H4R12195   3.778   0.092   3.076
  110POPS   H4S12196   3.614   0.100   3.145
  110POPS   C2512197   3.701   0.294   3.110
  110POPS   H5R12198   3.603   0.345   3.098
  110POPS   H5S12199   3.772   0.342   3.040
  110POPS   C2612200   3.749   0.314   3.255
  110POPS   H6R12201   3.860   0.311   3.259
  110POPS   H6S12202   3.712   0.228   3.315
  110POPS   C2712203   3.696   0.445   3.316
  110POPS   H7R12204   3.588   0.454   3.291
  110POPS   H7S12205   3.746   0.531   3.266
  110POPS   C2812206   3.715   0.461   3.470
  110POPS   H8R12207   3.658   0.551   3.502
  110POPS   H8S12208   3.822   0.487   3.485
  110POPS   C2912209   3.675   0.343   3.557
  110POPS   H9112210   3.570   0.336   3.587
  110POPS  C21012211   3.760   0.252   3.606
  110POPS  H10112212   3.722   0.171   3.670
  110POPS  C21112213   3.907   0.254   3.580
  110POPS  H11R12214   3.930   0.286   3.476
  110POPS  H11S12215   3.948   0.152   3.593
  110POPS  C21212216   3.975   0.352   3.678
  110POPS  H12R12217   3.923   0.450   3.678
  110POPS  H12S12218   4.079   0.371   3.645
  110POPS  C21312219   3.977   0.295   3.819
  110POPS  H13R12220   4.034   0.200   3.815
  110POPS  H13S12221   3.873   0.271   3.852
  110POPS  C21412222   4.040   0.387   3.923
  110POPS  H14R12223   3.975   0.476   3.935
  110POPS  H14S12224   4.141   0.420   3.890
  110POPS  C21512225   4.049   0.313   4.056
  110POPS  H15R12226   4.120   0.229   4.045
  110POPS  H15S12227   3.949   0.271   4.079
  110POPS  C21612228   4.097   0.395   4.176
  110POPS  H16R12229   4.059   0.499   4.173
  110POPS  H16S12230   4.208   0.400   4.175
  110POPS  C21712231   4.048   0.328   4.305
  110POPS  H17R12232   4.064   0.219   4.299
  110POPS  H17S12233   3.938   0.342   4.312
  110POPS  C21812234   4.117   0.384   4.429
  110POPS  H18R12235   4.079   0.336   4.521
  110POPS  H18S12236   4.102   0.494   4.434
  110POPS  H18T12237   4.227   0.366   4.423
  110POPS   C3312238   4.038   0.395   2.732
  110POPS   H3X12239   3.928   0.393   2.714
  110POPS   H3Y12240   4.072   0.498   2.708
  110POPS   C3412241   4.066   0.373   2.882
  110POPS   H4X12242   4.175   0.383   2.900
  110POPS   H4Y12243   4.036   0.270   2.909
  110POPS   C3512244   3.994   0.473   2.974
  110POPS   H5X12245   3.979   0.426   3.074
  110POPS   H5Y12246   3.893   0.492   2.931
  110POPS   C3612247   4.068   0.606   2.993
  110POPS   H6X12248   3.994   0.689   2.992
  110POPS   H6Y12249   4.137   0.621   2.908
  110POPS   C3712250   4.148   0.616   3.125
  110POPS   H7X12251   4.214   0.705   3.118
  110POPS   H7Y12252   4.214   0.527   3.135
  110POPS   C3812253   4.060   0.631   3.251
  110POPS   H8X12254   4.002   0.538   3.269
  110POPS   H8Y12255   3.987   0.713   3.232
  110POPS   C3912256   4.141   0.667   3.376
  110POPS   H9X12257   4.207   0.753   3.352
  110POPS   H9Y12258   4.207   0.581   3.404
  110POPS  C31012259   4.053   0.705   3.496
  110POPS  H10X12260   3.997   0.616   3.532
  110POPS  H10Y12261   3.980   0.781   3.462
  110POPS  C31112262   4.134   0.766   3.612
  110POPS  H11X12263   4.194   0.850   3.570
  110POPS  H11Y12264   4.205   0.691   3.653
  110POPS  C31212265   4.046   0.823   3.725
  110POPS  H12X12266   3.959   0.875   3.680
  110POPS  H12Y12267   4.104   0.901   3.779
  110POPS  C31312268   4.000   0.718   3.828
  110POPS  H13X12269   4.083   0.646   3.844
  110POPS  H13Y12270   3.915   0.662   3.784
  110POPS  C31412271   3.963   0.779   3.965
  110POPS  H14X12272   3.914   0.877   3.946
  110POPS  H14Y12273   4.056   0.799   4.022
  110POPS  C31512274   3.863   0.701   4.053
  110POPS  H15X12275   3.845   0.761   4.144
  110POPS  H15Y12276   3.909   0.605   4.086
  110POPS  C31612277   3.728   0.670   3.987
  110POPS  H16X12278   3.681   0.763   3.949
  110POPS  H16Y12279   3.657   0.627   4.062
  110POPS  H16Z12280   3.739   0.598   3.904
  111POPS     N12281   3.303   6.948   2.281
  111POPS   HN112282   3.352   6.903   2.361
  111POPS   HN212283   3.200   6.937   2.289
  111POPS   HN312284   3.340   6.906   2.193
  111POPS   C1212285   3.338   7.093   2.291
  111POPS  H12A12286   3.343   7.135   2.191
  111POPS   C1312287   3.476   7.114   2.357
  111POPS  O13A12288   3.539   7.014   2.400
  111POPS  O13B12289   3.523   7.231   2.365
  111POPS   C1112290   3.227   7.167   2.371
  111POPS  H11A12291   3.267   7.265   2.405
  111POPS  H11B12292   3.204   7.111   2.463
  111POPS     P12293   3.056   7.325   2.250
  111POPS   O1312294   2.926   7.315   2.180
  111POPS   O1412295   3.162   7.394   2.173
  111POPS   O1212296   3.108   7.181   2.291
  111POPS   O1112297   3.037   7.401   2.387
  111POPS    C112298   2.966   7.339   2.495
  111POPS    HA12299   2.999   7.235   2.515
  111POPS    HB12300   2.857   7.337   2.473
  111POPS    C212301   2.987   7.419   2.627
  111POPS    HS12302   2.961   7.524   2.604
  111POPS   O2112303   3.125   7.408   2.667
  111POPS   C2112304   3.162   7.494   2.760
  111POPS   O2212305   3.092   7.583   2.805
  111POPS   C2212306   3.311   7.475   2.792
  111POPS   H2R12307   3.353   7.574   2.818
  111POPS   H2S12308   3.360   7.439   2.699
  111POPS    C312309   2.888   7.371   2.739
  111POPS    HX12310   2.787   7.376   2.695
  111POPS    HY12311   2.892   7.443   2.824
  111POPS   O3112312   2.920   7.238   2.787
  111POPS   C3112313   2.820   7.183   2.856
  111POPS   O3212314   2.707   7.228   2.862
  111POPS   C3212315   2.870   7.063   2.934
  111POPS   H2X12316   2.948   7.011   2.874
  111POPS   H2Y12317   2.784   6.994   2.946
  111POPS   C2312318   3.338   7.374   2.906
  111POPS   H3R12319   3.443   7.340   2.897
  111POPS   H3S12320   3.274   7.284   2.895
  111POPS   C2412321   3.322   7.434   3.047
  111POPS   H4R12322   3.218   7.469   3.061
  111POPS   H4S12323   3.390   7.522   3.057
  111POPS   C2512324   3.357   7.332   3.156
  111POPS   H5R12325   3.461   7.294   3.139
  111POPS   H5S12326   3.288   7.245   3.147
  111POPS   C2612327   3.348   7.385   3.300
  111POPS   H6R12328   3.418   7.470   3.314
  111POPS   H6S12329   3.381   7.303   3.368
  111POPS   C2712330   3.207   7.428   3.341
  111POPS   H7R12331   3.133   7.352   3.307
  111POPS   H7S12332   3.183   7.523   3.289
  111POPS   C2812333   3.191   7.451   3.493
  111POPS   H8R12334   3.101   7.514   3.509
  111POPS   H8S12335   3.278   7.510   3.529
  111POPS   C2912336   3.173   7.322   3.571
  111POPS   H9112337   3.091   7.260   3.534
  111POPS  C21012338   3.245   7.277   3.676
  111POPS  H10112339   3.216   7.180   3.719
  111POPS  C21112340   3.363   7.342   3.745
  111POPS  H11R12341   3.408   7.421   3.681
  111POPS  H11S12342   3.442   7.266   3.762
  111POPS  C21212343   3.328   7.406   3.881
  111POPS  H12R12344   3.261   7.493   3.862
  111POPS  H12S12345   3.420   7.445   3.928
  111POPS  C21312346   3.256   7.314   3.981
  111POPS  H13R12347   3.326   7.237   4.019
  111POPS  H13S12348   3.173   7.262   3.929
  111POPS  C21412349   3.194   7.392   4.099
  111POPS  H14R12350   3.113   7.458   4.059
  111POPS  H14S12351   3.272   7.458   4.143
  111POPS  C21512352   3.134   7.307   4.211
  111POPS  H15R12353   3.086   7.372   4.287
  111POPS  H15S12354   3.220   7.256   4.260
  111POPS  C21612355   3.034   7.198   4.167
  111POPS  H16R12356   3.045   7.112   4.237
  111POPS  H16S12357   3.059   7.162   4.066
  111POPS  C21712358   2.886   7.238   4.168
  111POPS  H17R12359   2.836   7.186   4.083
  111POPS  H17S12360   2.876   7.347   4.150
  111POPS  C21812361   2.814   7.196   4.297
  111POPS  H18R12362   2.704   7.212   4.287
  111POPS  H18S12363   2.851   7.255   4.383
  111POPS  H18T12364   2.830   7.088   4.318
  111POPS   C3312365   2.923   7.105   3.072
  111POPS   H3X12366   2.845   7.165   3.124
  111POPS   H3Y12367   3.013   7.169   3.062
  111POPS   C3412368   2.955   6.985   3.162
  111POPS   H4X12369   2.866   6.918   3.161
  111POPS   H4Y12370   2.970   7.018   3.266
  111POPS   C3512371   3.073   6.900   3.115
  111POPS   H5X12372   3.063   6.876   3.007
  111POPS   H5Y12373   3.067   6.803   3.170
  111POPS   C3612374   3.211   6.961   3.143
  111POPS   H6X12375   3.222   7.055   3.085
  111POPS   H6Y12376   3.288   6.890   3.106
  111POPS   C3712377   3.237   6.989   3.292
  111POPS   H7X12378   3.184   6.911   3.353
  111POPS   H7Y12379   3.194   7.087   3.321
  111POPS   C3812380   3.386   6.984   3.326
  111POPS   H8X12381   3.441   7.053   3.259
  111POPS   H8Y12382   3.424   6.881   3.307
  111POPS   C3912383   3.419   7.021   3.472
  111POPS   H9X12384   3.397   7.128   3.490
  111POPS   H9Y12385   3.529   7.007   3.485
  111POPS  C31012386   3.346   6.936   3.577
  111POPS  H10X12387   3.344   6.831   3.542
  111POPS  H10Y12388   3.241   6.970   3.588
  111POPS  C31112389   3.419   6.942   3.712
  111POPS  H11X12390   3.405   7.041   3.759
  111POPS  H11Y12391   3.528   6.932   3.692
  111POPS  C31212392   3.378   6.831   3.809
  111POPS  H12X12393   3.456   6.827   3.888
  111POPS  H12Y12394   3.376   6.732   3.759
  111POPS  C31312395   3.244   6.859   3.877
  111POPS  H13X12396   3.159   6.821   3.815
  111POPS  H13Y12397   3.232   6.970   3.884
  111POPS  C31412398   3.238   6.804   4.019
  111POPS  H14X12399   3.338   6.811   4.066
  111POPS  H14Y12400   3.209   6.696   4.018
  111POPS  C31512401   3.141   6.885   4.105
  111POPS  H15X12402   3.177   6.990   4.104
  111POPS  H15Y12403   3.148   6.850   4.210
  111POPS  C31612404   2.996   6.877   4.058
  111POPS  H16X12405   2.965   6.771   4.046
  111POPS  H16Y12406   2.982   6.929   3.961
  111POPS  H16Z12407   2.928   6.925   4.133
  112POPS     N12408   5.638   0.721   2.375
  112POPS   HN112409   5.577   0.780   2.435
  112POPS   HN212410   5.619   0.619   2.386
  112POPS   HN312411   5.736   0.743   2.402
  112POPS   C1212412   5.622   0.763   2.232
  112POPS  H12A12413   5.517   0.753   2.206
  112POPS   C1312414   5.702   0.677   2.132
  112POPS  O13A12415   5.780   0.588   2.177
  112POPS  O13B12416   5.687   0.698   2.009
  112POPS   C1112417   5.666   0.911   2.214
  112POPS  H11A12418   5.644   0.941   2.109
  112POPS  H11B12419   5.776   0.919   2.225
  112POPS     P12420   5.659   1.045   2.440
  112POPS   O1312421   5.691   1.189   2.433
  112POPS   O1412422   5.768   0.949   2.470
  112POPS   O1212423   5.596   1.000   2.302
  112POPS   O1112424   5.539   1.016   2.537
  112POPS    C112425   5.412   1.079   2.514
  112POPS    HA12426   5.365   1.041   2.421
  112POPS    HB12427   5.424   1.189   2.504
  112POPS    C212428   5.313   1.055   2.632
  112POPS    HS12429   5.235   1.134   2.626
  112POPS   O2112430   5.382   1.061   2.758
  112POPS   C2112431   5.416   1.181   2.799
  112POPS   O2212432   5.375   1.287   2.753
  112POPS   C2212433   5.514   1.168   2.915
  112POPS   H2R12434   5.505   1.065   2.957
  112POPS   H2S12435   5.486   1.241   2.994
  112POPS    C312436   5.238   0.918   2.624
  112POPS    HX12437   5.188   0.914   2.525
  112POPS    HY12438   5.156   0.915   2.699
  112POPS   O3112439   5.326   0.805   2.636
  112POPS   C3112440   5.345   0.761   2.761
  112POPS   O3212441   5.289   0.804   2.861
  112POPS   C3212442   5.441   0.643   2.758
  112POPS   H2X12443   5.489   0.637   2.658
  112POPS   H2Y12444   5.381   0.551   2.774
  112POPS   C2312445   5.658   1.194   2.866
  112POPS   H3R12446   5.676   1.303   2.863
  112POPS   H3S12447   5.666   1.158   2.761
  112POPS   C2412448   5.768   1.118   2.942
  112POPS   H4R12449   5.862   1.130   2.884
  112POPS   H4S12450   5.742   1.011   2.942
  112POPS   C2512451   5.799   1.158   3.087
  112POPS   H5R12452   5.825   1.265   3.097
  112POPS   H5S12453   5.891   1.101   3.115
  112POPS   C2612454   5.693   1.123   3.192
  112POPS   H6R12455   5.641   1.028   3.167
  112POPS   H6S12456   5.614   1.202   3.191
  112POPS   C2712457   5.757   1.112   3.331
  112POPS   H7R12458   5.836   1.190   3.337
  112POPS   H7S12459   5.811   1.016   3.340
  112POPS   C2812460   5.659   1.133   3.447
  112POPS   H8R12461   5.583   1.209   3.418
  112POPS   H8S12462   5.715   1.179   3.532
  112POPS   C2912463   5.594   1.004   3.488
  112POPS   H9112464   5.528   0.959   3.412
  112POPS  C21012465   5.611   0.941   3.605
  112POPS  H10112466   5.556   0.848   3.623
  112POPS  C21112467   5.698   0.987   3.720
  112POPS  H11R12468   5.782   1.052   3.687
  112POPS  H11S12469   5.742   0.900   3.772
  112POPS  C21212470   5.609   1.066   3.818
  112POPS  H12R12471   5.526   0.999   3.849
  112POPS  H12S12472   5.565   1.152   3.765
  112POPS  C21312473   5.678   1.119   3.946
  112POPS  H13R12474   5.785   1.087   3.944
  112POPS  H13S12475   5.632   1.072   4.035
  112POPS  C21412476   5.667   1.272   3.958
  112POPS  H14R12477   5.560   1.302   3.950
  112POPS  H14S12478   5.719   1.317   3.872
  112POPS  C21512479   5.723   1.332   4.089
  112POPS  H15R12480   5.644   1.332   4.166
  112POPS  H15S12481   5.749   1.439   4.070
  112POPS  C21612482   5.846   1.259   4.144
  112POPS  H16R12483   5.910   1.223   4.061
  112POPS  H16S12484   5.810   1.167   4.194
  112POPS  C21712485   5.936   1.341   4.239
  112POPS  H17R12486   5.995   1.413   4.179
  112POPS  H17S12487   6.009   1.270   4.285
  112POPS  C21812488   5.868   1.420   4.351
  112POPS  H18R12489   5.943   1.482   4.405
  112POPS  H18S12490   5.821   1.352   4.425
  112POPS  H18T12491   5.790   1.487   4.309
  112POPS   C3312492   5.551   0.651   2.867
  112POPS   H3X12493   5.614   0.560   2.857
  112POPS   H3Y12494   5.506   0.650   2.968
  112POPS   C3412495   5.641   0.775   2.853
  112POPS   H4X12496   5.597   0.857   2.912
  112POPS   H4Y12497   5.643   0.809   2.747
  112POPS   C3512498   5.787   0.749   2.896
  112POPS   H5X12499   5.848   0.842   2.887
  112POPS   H5Y12500   5.831   0.677   2.823
  112POPS   C3612501   5.804   0.691   3.037
  112POPS   H6X12502   5.910   0.661   3.051
  112POPS   H6Y12503   5.742   0.600   3.047
  112POPS   C3712504   5.769   0.788   3.150
  112POPS   H7X12505   5.669   0.831   3.130
  112POPS   H7Y12506   5.843   0.870   3.150
  112POPS   C3812507   5.765   0.721   3.289
  112POPS   H8X12508   5.777   0.800   3.366
  112POPS   H8Y12509   5.850   0.650   3.300
  112POPS   C3912510   5.631   0.651   3.314
  112POPS   H9X12511   5.619   0.564   3.245
  112POPS   H9Y12512   5.551   0.724   3.290
  112POPS  C31012513   5.612   0.605   3.459
  112POPS  H10X12514   5.661   0.677   3.527
  112POPS  H10Y12515   5.661   0.506   3.473
  112POPS  C31112516   5.463   0.596   3.495
  112POPS  H11X12517   5.413   0.532   3.418
  112POPS  H11Y12518   5.416   0.697   3.489
  112POPS  C31212519   5.436   0.535   3.633
  112POPS  H12X12520   5.491   0.439   3.638
  112POPS  H12Y12521   5.328   0.514   3.643
  112POPS  C31312522   5.484   0.618   3.752
  112POPS  H13X12523   5.440   0.720   3.749
  112POPS  H13Y12524   5.595   0.627   3.743
  112POPS  C31412525   5.448   0.552   3.886
  112POPS  H14X12526   5.422   0.445   3.869
  112POPS  H14Y12527   5.356   0.601   3.926
  112POPS  C31512528   5.559   0.556   3.992
  112POPS  H15X12529   5.631   0.474   3.972
  112POPS  H15Y12530   5.513   0.536   4.091
  112POPS  C31612531   5.637   0.688   3.998
  112POPS  H16X12532   5.723   0.686   3.928
  112POPS  H16Y12533   5.674   0.708   4.101
  112POPS  H16Z12534   5.571   0.773   3.967
  113POPS     N12535   7.466   3.429   2.182
  113POPS   HN112536   7.481   3.454   2.282
  113POPS   HN212537   7.538   3.361   2.150
  113POPS   HN312538   7.462   3.514   2.122
  113POPS   C1212539   7.330   3.367   2.178
  113POPS  H12A12540   7.343   3.260   2.182
  113POPS   C1312541   7.255   3.403   2.046
  113POPS  O13A12542   7.304   3.490   1.969
  113POPS  O13B12543   7.150   3.340   2.015
  113POPS   C1112544   7.258   3.414   2.309
  113POPS  H11A12545   7.174   3.345   2.332
  113POPS  H11B12546   7.213   3.513   2.291
  113POPS     P12547   7.394   3.307   2.514
  113POPS   O1312548   7.537   3.280   2.483
  113POPS   O1412549   7.304   3.193   2.489
  113POPS   O1212550   7.350   3.426   2.419
  113POPS   O1112551   7.373   3.365   2.661
  113POPS    C112552   7.391   3.503   2.698
  113POPS    HA12553   7.355   3.572   2.618
  113POPS    HB12554   7.499   3.522   2.711
  113POPS    C212555   7.317   3.547   2.832
  113POPS    HS12556   7.360   3.643   2.866
  113POPS   O2112557   7.335   3.446   2.933
  113POPS   C2112558   7.460   3.429   2.974
  113POPS   O2212559   7.551   3.508   2.957
  113POPS   C2212560   7.475   3.293   3.042
  113POPS   H2R12561   7.582   3.266   3.042
  113POPS   H2S12562   7.422   3.220   2.978
  113POPS    C312563   7.163   3.573   2.806
  113POPS    HX12564   7.137   3.480   2.751
  113POPS    HY12565   7.155   3.659   2.735
  113POPS   O3112566   7.073   3.591   2.921
  113POPS   C3112567   6.941   3.576   2.884
  113POPS   O3212568   6.907   3.573   2.768
  113POPS   C3212569   6.837   3.576   3.002
  113POPS   H2X12570   6.819   3.684   3.022
  113POPS   H2Y12571   6.881   3.537   3.096
  113POPS   C2312572   7.419   3.287   3.187
  113POPS   H3R12573   7.352   3.374   3.203
  113POPS   H3S12574   7.501   3.298   3.261
  113POPS   C2412575   7.344   3.155   3.210
  113POPS   H4R12576   7.419   3.074   3.223
  113POPS   H4S12577   7.285   3.131   3.119
  113POPS   C2512578   7.243   3.150   3.327
  113POPS   H5R12579   7.207   3.045   3.334
  113POPS   H5S12580   7.151   3.208   3.306
  113POPS   C2612581   7.294   3.189   3.465
  113POPS   H6R12582   7.240   3.281   3.498
  113POPS   H6S12583   7.402   3.214   3.460
  113POPS   C2712584   7.269   3.076   3.566
  113POPS   H7R12585   7.332   2.990   3.537
  113POPS   H7S12586   7.163   3.044   3.556
  113POPS   C2812587   7.294   3.114   3.712
  113POPS   H8R12588   7.273   3.026   3.777
  113POPS   H8S12589   7.223   3.193   3.742
  113POPS   C2912590   7.436   3.159   3.728
  113POPS   H9112591   7.508   3.078   3.747
  113POPS  C21012592   7.480   3.285   3.719
  113POPS  H10112593   7.587   3.303   3.738
  113POPS  C21112594   7.403   3.413   3.692
  113POPS  H11R12595   7.293   3.394   3.699
  113POPS  H11S12596   7.422   3.450   3.589
  113POPS  C21212597   7.441   3.523   3.794
  113POPS  H12R12598   7.365   3.604   3.791
  113POPS  H12S12599   7.540   3.566   3.767
  113POPS  C21312600   7.449   3.461   3.933
  113POPS  H13R12601   7.536   3.392   3.929
  113POPS  H13S12602   7.355   3.403   3.946
  113POPS  C21412603   7.474   3.540   4.062
  113POPS  H14R12604   7.402   3.624   4.072
  113POPS  H14S12605   7.576   3.582   4.058
  113POPS  C21512606   7.462   3.443   4.183
  113POPS  H15R12607   7.357   3.446   4.220
  113POPS  H15S12608   7.527   3.478   4.265
  113POPS  C21612609   7.494   3.295   4.147
  113POPS  H16R12610   7.594   3.289   4.098
  113POPS  H16S12611   7.419   3.259   4.073
  113POPS  C21712612   7.489   3.190   4.257
  113POPS  H17R12613   7.465   3.093   4.210
  113POPS  H17S12614   7.403   3.215   4.324
  113POPS  C21812615   7.620   3.174   4.334
  113POPS  H18R12616   7.703   3.155   4.262
  113POPS  H18S12617   7.615   3.088   4.404
  113POPS  H18T12618   7.643   3.266   4.392
  113POPS   C3312619   6.696   3.507   2.982
  113POPS   H3X12620   6.667   3.518   2.875
  113POPS   H3Y12621   6.625   3.569   3.042
  113POPS   C3412622   6.665   3.360   3.028
  113POPS   H4X12623   6.729   3.285   2.977
  113POPS   H4Y12624   6.562   3.340   2.992
  113POPS   C3512625   6.662   3.332   3.181
  113POPS   H5X12626   6.558   3.349   3.217
  113POPS   H5Y12627   6.726   3.414   3.220
  113POPS   C3612628   6.713   3.196   3.244
  113POPS   H6X12629   6.813   3.169   3.205
  113POPS   H6Y12630   6.644   3.115   3.211
  113POPS   C3712631   6.719   3.196   3.400
  113POPS   H7X12632   6.639   3.131   3.443
  113POPS   H7Y12633   6.686   3.297   3.432
  113POPS   C3812634   6.851   3.180   3.483
  113POPS   H8X12635   6.940   3.192   3.419
  113POPS   H8Y12636   6.857   3.078   3.526
  113POPS   C3912637   6.854   3.285   3.599
  113POPS   H9X12638   6.758   3.276   3.654
  113POPS   H9Y12639   6.852   3.387   3.554
  113POPS  C31012640   6.972   3.284   3.699
  113POPS  H10X12641   7.063   3.316   3.644
  113POPS  H10Y12642   6.988   3.182   3.737
  113POPS  C31112643   6.952   3.380   3.819
  113POPS  H11X12644   6.876   3.338   3.888
  113POPS  H11Y12645   6.914   3.478   3.783
  113POPS  C31212646   7.081   3.407   3.899
  113POPS  H12X12647   7.149   3.466   3.833
  113POPS  H12Y12648   7.133   3.311   3.921
  113POPS  C31312649   7.066   3.487   4.030
  113POPS  H13X12650   7.008   3.580   4.010
  113POPS  H13Y12651   7.168   3.519   4.062
  113POPS  C31412652   7.003   3.412   4.149
  113POPS  H14X12653   6.897   3.388   4.126
  113POPS  H14Y12654   7.003   3.480   4.237
  113POPS  C31512655   7.077   3.283   4.189
  113POPS  H15X12656   7.185   3.305   4.200
  113POPS  H15Y12657   7.065   3.209   4.107
  113POPS  C31612658   7.025   3.221   4.319
  113POPS  H16X12659   7.074   3.123   4.338
  113POPS  H16Y12660   6.915   3.205   4.314
  113POPS  H16Z12661   7.046   3.288   4.405
  114POPS     N12662   6.770   1.879   2.051
  114POPS   HN112663   6.746   1.786   2.090
  114POPS   HN212664   6.719   1.894   1.962
  114POPS   HN312665   6.873   1.888   2.039
  114POPS   C1212666   6.728   1.978   2.155
  114POPS  H12A12667   6.621   1.992   2.146
  114POPS   C1312668   6.795   2.116   2.139
  114POPS  O13A12669   6.895   2.127   2.064
  114POPS  O13B12670   6.738   2.217   2.189
  114POPS   C1112671   6.756   1.908   2.290
  114POPS  H11A12672   6.712   1.967   2.374
  114POPS  H11B12673   6.866   1.904   2.308
  114POPS     P12674   6.763   1.647   2.341
  114POPS   O1312675   6.878   1.683   2.425
  114POPS   O1412676   6.790   1.561   2.223
  114POPS   O1212677   6.696   1.779   2.284
  114POPS   O1112678   6.646   1.584   2.425
  114POPS    C112679   6.546   1.667   2.485
  114POPS    HA12680   6.448   1.643   2.438
  114POPS    HB12681   6.561   1.776   2.470
  114POPS    C212682   6.530   1.639   2.637
  114POPS    HS12683   6.438   1.691   2.670
  114POPS   O2112684   6.642   1.686   2.715
  114POPS   C2112685   6.661   1.817   2.726
  114POPS   O2212686   6.620   1.903   2.652
  114POPS   C2212687   6.736   1.844   2.858
  114POPS   H2R12688   6.843   1.861   2.834
  114POPS   H2S12689   6.728   1.753   2.920
  114POPS    C312690   6.510   1.485   2.659
  114POPS    HX12691   6.495   1.439   2.559
  114POPS    HY12692   6.415   1.468   2.714
  114POPS   O3112693   6.621   1.419   2.724
  114POPS   C3112694   6.623   1.433   2.857
  114POPS   O3212695   6.529   1.472   2.924
  114POPS   C3212696   6.756   1.384   2.913
  114POPS   H2X12697   6.808   1.326   2.833
  114POPS   H2Y12698   6.733   1.316   2.997
  114POPS   C2312699   6.677   1.963   2.938
  114POPS   H3R12700   6.569   1.948   2.956
  114POPS   H3S12701   6.689   2.053   2.875
  114POPS   C2412702   6.747   1.991   3.073
  114POPS   H4R12703   6.736   2.099   3.097
  114POPS   H4S12704   6.856   1.972   3.061
  114POPS   C2512705   6.695   1.912   3.195
  114POPS   H5R12706   6.695   1.803   3.170
  114POPS   H5S12707   6.590   1.940   3.218
  114POPS   C2612708   6.785   1.934   3.318
  114POPS   H6R12709   6.784   2.041   3.347
  114POPS   H6S12710   6.887   1.908   3.286
  114POPS   C2712711   6.752   1.848   3.442
  114POPS   H7R12712   6.732   1.743   3.409
  114POPS   H7S12713   6.660   1.886   3.490
  114POPS   C2812714   6.867   1.844   3.545
  114POPS   H8R12715   6.831   1.789   3.635
  114POPS   H8S12716   6.888   1.947   3.579
  114POPS   C2912717   6.993   1.780   3.491
  114POPS   H9112718   7.061   1.850   3.440
  114POPS  C21012719   7.026   1.650   3.497
  114POPS  H10112720   7.122   1.617   3.452
  114POPS  C21112721   6.944   1.541   3.559
  114POPS  H11R12722   6.916   1.466   3.482
  114POPS  H11S12723   6.849   1.581   3.601
  114POPS  C21212724   7.014   1.467   3.673
  114POPS  H12R12725   7.099   1.408   3.632
  114POPS  H12S12726   6.941   1.395   3.716
  114POPS  C21312727   7.065   1.559   3.783
  114POPS  H13R12728   7.011   1.656   3.781
  114POPS  H13S12729   7.172   1.580   3.762
  114POPS  C21412730   7.051   1.498   3.923
  114POPS  H14R12731   7.127   1.544   3.990
  114POPS  H14S12732   7.076   1.389   3.918
  114POPS  C21512733   6.912   1.519   3.984
  114POPS  H15R12734   6.864   1.420   4.001
  114POPS  H15S12735   6.847   1.574   3.912
  114POPS  C21612736   6.919   1.598   4.116
  114POPS  H16R12737   6.943   1.704   4.092
  114POPS  H16S12738   7.002   1.557   4.177
  114POPS  C21712739   6.791   1.592   4.201
  114POPS  H17R12740   6.808   1.650   4.294
  114POPS  H17S12741   6.771   1.487   4.230
  114POPS  C21812742   6.668   1.647   4.131
  114POPS  H18R12743   6.685   1.752   4.097
  114POPS  H18S12744   6.580   1.645   4.198
  114POPS  H18T12745   6.645   1.585   4.041
  114POPS   C3312746   6.851   1.495   2.963
  114POPS   H3X12747   6.871   1.566   2.879
  114POPS   H3Y12748   6.949   1.451   2.990
  114POPS   C3412749   6.796   1.573   3.084
  114POPS   H4X12750   6.695   1.610   3.058
  114POPS   H4Y12751   6.861   1.662   3.101
  114POPS   C3512752   6.782   1.495   3.215
  114POPS   H5X12753   6.857   1.535   3.287
  114POPS   H5Y12754   6.804   1.388   3.200
  114POPS   C3612755   6.641   1.513   3.274
  114POPS   H6X12756   6.568   1.466   3.205
  114POPS   H6Y12757   6.616   1.621   3.278
  114POPS   C3712758   6.624   1.454   3.415
  114POPS   H7X12759   6.693   1.505   3.485
  114POPS   H7Y12760   6.653   1.347   3.411
  114POPS   C3812761   6.481   1.465   3.468
  114POPS   H8X12762   6.468   1.393   3.552
  114POPS   H8Y12763   6.411   1.435   3.387
  114POPS   C3912764   6.441   1.605   3.518
  114POPS   H9X12765   6.331   1.606   3.530
  114POPS   H9Y12766   6.467   1.682   3.443
  114POPS  C31012767   6.503   1.641   3.654
  114POPS  H10X12768   6.611   1.663   3.642
  114POPS  H10Y12769   6.494   1.552   3.721
  114POPS  C31112770   6.433   1.760   3.721
  114POPS  H11X12771   6.323   1.741   3.722
  114POPS  H11Y12772   6.450   1.851   3.660
  114POPS  C31212773   6.479   1.784   3.866
  114POPS  H12X12774   6.561   1.713   3.889
  114POPS  H12Y12775   6.395   1.762   3.935
  114POPS  C31312776   6.530   1.927   3.891
  114POPS  H13X12777   6.535   1.945   4.001
  114POPS  H13Y12778   6.458   1.999   3.848
  114POPS  C31412779   6.670   1.949   3.831
  114POPS  H14X12780   6.670   1.904   3.730
  114POPS  H14Y12781   6.745   1.895   3.892
  114POPS  C31512782   6.710   2.097   3.816
  114POPS  H15X12783   6.633   2.148   3.754
  114POPS  H15Y12784   6.806   2.101   3.759
  114POPS  C31612785   6.728   2.172   3.948
  114POPS  H16X12786   6.632   2.175   4.003
  114POPS  H16Y12787   6.760   2.277   3.929
  114POPS  H16Z12788   6.804   2.122   4.012
  115POPS     N12789   6.941   6.182   2.169
  115POPS   HN112790   6.850   6.136   2.147
  115POPS   HN212791   6.936   6.285   2.162
  115POPS   HN312792   7.017   6.147   2.106
  115POPS   C1212793   6.978   6.141   2.308
  115POPS  H12A12794   6.906   6.186   2.374
  115POPS   C1312795   7.120   6.190   2.347
  115POPS  O13A12796   7.191   6.248   2.261
  115POPS  O13B12797   7.160   6.169   2.464
  115POPS   C1112798   6.971   5.985   2.317
  115POPS  H11A12799   6.955   5.958   2.424
  115POPS  H11B12800   7.070   5.943   2.289
  115POPS     P12801   6.722   5.915   2.277
  115POPS   O1312802   6.650   5.836   2.174
  115POPS   O1412803   6.678   6.053   2.301
  115POPS   O1212804   6.873   5.927   2.229
  115POPS   O1112805   6.740   5.830   2.408
  115POPS    C112806   6.780   5.692   2.391
  115POPS    HA12807   6.865   5.681   2.321
  115POPS    HB12808   6.693   5.635   2.351
  115POPS    C212809   6.818   5.624   2.526
  115POPS    HS12810   6.800   5.515   2.512
  115POPS   O2112811   6.726   5.673   2.624
  115POPS   C2112812   6.754   5.662   2.751
  115POPS   O2212813   6.839   5.591   2.802
  115POPS   C2212814   6.656   5.750   2.829
  115POPS   H2R12815   6.563   5.691   2.846
  115POPS   H2S12816   6.630   5.839   2.768
  115POPS    C312817   6.971   5.638   2.559
  115POPS    HX12818   7.027   5.623   2.464
  115POPS    HY12819   6.997   5.554   2.626
  115POPS   O3112820   7.007   5.764   2.619
  115POPS   C3112821   7.134   5.764   2.659
  115POPS   O3212822   7.215   5.676   2.634
  115POPS   C3212823   7.166   5.888   2.743
  115POPS   H2X12824   7.170   5.974   2.673
  115POPS   H2Y12825   7.267   5.872   2.787
  115POPS   C2312826   6.718   5.794   2.963
  115POPS   H3R12827   6.799   5.865   2.940
  115POPS   H3S12828   6.761   5.706   3.017
  115POPS   C2412829   6.622   5.865   3.059
  115POPS   H4R12830   6.530   5.806   3.075
  115POPS   H4S12831   6.594   5.962   3.014
  115POPS   C2512832   6.691   5.889   3.194
  115POPS   H5R12833   6.797   5.918   3.175
  115POPS   H5S12834   6.694   5.794   3.252
  115POPS   C2612835   6.627   6.001   3.276
  115POPS   H6R12836   6.519   5.980   3.293
  115POPS   H6S12837   6.635   6.095   3.218
  115POPS   C2712838   6.698   6.019   3.411
  115POPS   H7R12839   6.806   5.997   3.398
  115POPS   H7S12840   6.658   5.943   3.482
  115POPS   C2812841   6.680   6.160   3.470
  115POPS   H8R12842   6.696   6.153   3.580
  115POPS   H8S12843   6.575   6.191   3.457
  115POPS   C2912844   6.774   6.263   3.412
  115POPS   H9112845   6.727   6.335   3.343
  115POPS  C21012846   6.906   6.274   3.437
  115POPS  H10112847   6.962   6.355   3.389
  115POPS  C21112848   6.989   6.184   3.527
  115POPS  H11R12849   7.082   6.155   3.474
  115POPS  H11S12850   6.936   6.090   3.551
  115POPS  C21212851   7.029   6.250   3.661
  115POPS  H12R12852   7.088   6.342   3.639
  115POPS  H12S12853   7.096   6.181   3.717
  115POPS  C21312854   6.910   6.288   3.751
  115POPS  H13R12855   6.840   6.351   3.692
  115POPS  H13S12856   6.948   6.348   3.836
  115POPS  C21412857   6.832   6.171   3.811
  115POPS  H14R12858   6.893   6.130   3.894
  115POPS  H14S12859   6.820   6.090   3.736
  115POPS  C21512860   6.695   6.215   3.864
  115POPS  H15R12861   6.630   6.245   3.780
  115POPS  H15S12862   6.710   6.304   3.929
  115POPS  C21612863   6.627   6.106   3.948
  115POPS  H16R12864   6.539   6.151   3.999
  115POPS  H16S12865   6.697   6.073   4.027
  115POPS  C21712866   6.583   5.984   3.866
  115POPS  H17R12867   6.669   5.949   3.805
  115POPS  H17S12868   6.503   6.014   3.794
  115POPS  C21812869   6.535   5.866   3.951
  115POPS  H18R12870   6.612   5.839   4.026
  115POPS  H18S12871   6.515   5.778   3.887
  115POPS  H18T12872   6.441   5.892   4.005
  115POPS   C3312873   7.064   5.917   2.855
  115POPS   H3X12874   6.963   5.925   2.810
  115POPS   H3Y12875   7.088   6.016   2.899
  115POPS   C3412876   7.063   5.813   2.969
  115POPS   H4X12877   7.047   5.711   2.927
  115POPS   H4Y12878   6.976   5.835   3.035
  115POPS   C3512879   7.186   5.815   3.060
  115POPS   H5X12880   7.200   5.918   3.097
  115POPS   H5Y12881   7.276   5.787   3.000
  115POPS   C3612882   7.174   5.718   3.179
  115POPS   H6X12883   7.275   5.701   3.222
  115POPS   H6Y12884   7.137   5.621   3.141
  115POPS   C3712885   7.080   5.767   3.291
  115POPS   H7X12886   6.986   5.807   3.246
  115POPS   H7Y12887   7.128   5.851   3.347
  115POPS   C3812888   7.041   5.655   3.388
  115POPS   H8X12889   7.131   5.615   3.440
  115POPS   H8Y12890   7.000   5.572   3.326
  115POPS   C3912891   6.935   5.693   3.492
  115POPS   H9X12892   6.872   5.603   3.510
  115POPS   H9Y12893   6.868   5.771   3.451
  115POPS  C31012894   6.990   5.737   3.629
  115POPS  H10X12895   7.053   5.828   3.618
  115POPS  H10Y12896   7.054   5.656   3.670
  115POPS  C31112897   6.874   5.764   3.727
  115POPS  H11X12898   6.797   5.685   3.713
  115POPS  H11Y12899   6.828   5.861   3.697
  115POPS  C31212900   6.910   5.767   3.876
  115POPS  H12X12901   6.949   5.668   3.908
  115POPS  H12Y12902   6.817   5.787   3.933
  115POPS  C31312903   7.012   5.876   3.913
  115POPS  H13X12904   7.005   5.957   3.838
  115POPS  H13Y12905   7.114   5.832   3.900
  115POPS  C31412906   6.991   5.938   4.052
  115POPS  H14X12907   6.887   5.976   4.054
  115POPS  H14Y12908   7.058   6.026   4.064
  115POPS  C31512909   7.008   5.845   4.174
  115POPS  H15X12910   6.981   5.741   4.148
  115POPS  H15Y12911   6.935   5.880   4.250
  115POPS  C31612912   7.146   5.850   4.240
  115POPS  H16X12913   7.183   5.955   4.245
  115POPS  H16Y12914   7.219   5.789   4.184
  115POPS  H16Z12915   7.140   5.811   4.344
  116POPS     N12916   6.408   1.165   2.427
  116POPS   HN112917   6.482   1.191   2.496
  116POPS   HN212918   6.314   1.196   2.458
  116POPS   HN312919   6.407   1.062   2.416
  116POPS   C1212920   6.430   1.229   2.293
  116POPS  H12A12921   6.517   1.293   2.299
  116POPS   C1312922   6.309   1.314   2.250
  116POPS  O13A12923   6.203   1.306   2.318
  116POPS  O13B12924   6.316   1.382   2.144
  116POPS   C1112925   6.447   1.121   2.181
  116POPS  H11A12926   6.496   1.170   2.094
  116POPS  H11B12927   6.347   1.090   2.145
  116POPS     P12928   6.456   0.869   2.248
  116POPS   O1312929   6.557   0.763   2.265
  116POPS   O1412930   6.353   0.845   2.145
  116POPS   O1212931   6.527   1.008   2.221
  116POPS   O1112932   6.382   0.907   2.383
  116POPS    C112933   6.264   0.840   2.427
  116POPS    HA12934   6.249   0.744   2.372
  116POPS    HB12935   6.174   0.903   2.411
  116POPS    C212936   6.270   0.798   2.577
  116POPS    HS12937   6.193   0.718   2.586
  116POPS   O2112938   6.246   0.911   2.664
  116POPS   C2112939   6.173   0.877   2.771
  116POPS   O2212940   6.095   0.783   2.775
  116POPS   C2212941   6.204   0.968   2.890
  116POPS   H2R12942   6.144   1.060   2.876
  116POPS   H2S12943   6.312   0.994   2.889
  116POPS    C312944   6.406   0.734   2.614
  116POPS    HX12945   6.422   0.652   2.540
  116POPS    HY12946   6.396   0.690   2.716
  116POPS   O3112947   6.516   0.825   2.603
  116POPS   C3112948   6.629   0.771   2.649
  116POPS   O3212949   6.635   0.671   2.718
  116POPS   C3212950   6.745   0.861   2.609
  116POPS   H2X12951   6.767   0.843   2.502
  116POPS   H2Y12952   6.834   0.828   2.668
  116POPS   C2312953   6.165   0.902   3.025
  116POPS   H3R12954   6.073   0.841   3.014
  116POPS   H3S12955   6.140   0.982   3.098
  116POPS   C2412956   6.274   0.815   3.090
  116POPS   H4R12957   6.225   0.760   3.174
  116POPS   H4S12958   6.352   0.879   3.136
  116POPS   C2512959   6.343   0.713   2.998
  116POPS   H5R12960   6.417   0.766   2.934
  116POPS   H5S12961   6.268   0.665   2.932
  116POPS   C2612962   6.417   0.599   3.072
  116POPS   H6R12963   6.489   0.642   3.145
  116POPS   H6S12964   6.478   0.544   2.997
  116POPS   C2712965   6.324   0.498   3.141
  116POPS   H7R12966   6.344   0.398   3.096
  116POPS   H7S12967   6.218   0.522   3.116
  116POPS   C2812968   6.341   0.485   3.294
  116POPS   H8R12969   6.450   0.481   3.316
  116POPS   H8S12970   6.300   0.386   3.322
  116POPS   C2912971   6.269   0.592   3.373
  116POPS   H9112972   6.161   0.596   3.355
  116POPS  C21012973   6.324   0.679   3.460
  116POPS  H10112974   6.259   0.752   3.510
  116POPS  C21112975   6.470   0.686   3.495
  116POPS  H11R12976   6.512   0.583   3.503
  116POPS  H11S12977   6.483   0.731   3.595
  116POPS  C21212978   6.552   0.760   3.387
  116POPS  H12R12979   6.489   0.787   3.300
  116POPS  H12S12980   6.625   0.686   3.346
  116POPS  C21312981   6.628   0.887   3.428
  116POPS  H13R12982   6.562   0.975   3.409
  116POPS  H13S12983   6.714   0.898   3.359
  116POPS  C21412984   6.677   0.901   3.572
  116POPS  H14R12985   6.774   0.954   3.571
  116POPS  H14S12986   6.694   0.802   3.620
  116POPS  C21512987   6.580   0.985   3.658
  116POPS  H15R12988   6.485   0.931   3.673
  116POPS  H15S12989   6.557   1.080   3.605
  116POPS  C21612990   6.644   1.018   3.792
  116POPS  H16R12991   6.740   1.070   3.773
  116POPS  H16S12992   6.666   0.923   3.845
  116POPS  C21712993   6.558   1.107   3.882
  116POPS  H17R12994   6.458   1.061   3.895
  116POPS  H17S12995   6.543   1.205   3.832
  116POPS  C21812996   6.624   1.127   4.018
  116POPS  H18R12997   6.641   1.029   4.067
  116POPS  H18S12998   6.562   1.189   4.085
  116POPS  H18T12999   6.723   1.177   4.006
  116POPS   C3313000   6.715   1.010   2.630
  116POPS   H3X13001   6.641   1.044   2.554
  116POPS   H3Y13002   6.809   1.066   2.612
  116POPS   C3413003   6.662   1.042   2.770
  116POPS   H4X13004   6.553   1.019   2.775
  116POPS   H4Y13005   6.675   1.151   2.786
  116POPS   C3513006   6.732   0.966   2.884
  116POPS   H5X13007   6.840   0.956   2.859
  116POPS   H5Y13008   6.691   0.863   2.892
  116POPS   C3613009   6.717   1.035   3.020
  116POPS   H6X13010   6.786   1.122   3.022
  116POPS   H6Y13011   6.750   0.965   3.100
  116POPS   C3713012   6.574   1.081   3.046
  116POPS   H7X13013   6.509   0.991   3.052
  116POPS   H7Y13014   6.536   1.145   2.964
  116POPS   C3813015   6.562   1.162   3.174
  116POPS   H8X13016   6.620   1.257   3.165
  116POPS   H8Y13017   6.609   1.105   3.257
  116POPS   C3913018   6.416   1.195   3.206
  116POPS   H9X13019   6.349   1.148   3.131
  116POPS   H9Y13020   6.401   1.305   3.200
  116POPS  C31013021   6.381   1.143   3.344
  116POPS  H10X13022   6.459   1.179   3.415
  116POPS  H10Y13023   6.383   1.032   3.344
  116POPS  C31113024   6.246   1.187   3.396
  116POPS  H11X13025   6.165   1.131   3.344
  116POPS  H11Y13026   6.231   1.296   3.377
  116POPS  C31213027   6.241   1.162   3.546
  116POPS  H12X13028   6.314   1.230   3.595
  116POPS  H12Y13029   6.271   1.058   3.571
  116POPS  C31313030   6.102   1.190   3.601
  116POPS  H13X13031   6.036   1.101   3.592
  116POPS  H13Y13032   6.057   1.271   3.541
  116POPS  C31413033   6.110   1.238   3.746
  116POPS  H14X13034   6.187   1.317   3.751
  116POPS  H14Y13035   6.140   1.156   3.814
  116POPS  C31513036   5.977   1.299   3.788
  116POPS  H15X13037   5.912   1.218   3.828
  116POPS  H15Y13038   5.926   1.341   3.699
  116POPS  C31613039   5.998   1.409   3.890
  116POPS  H16X13040   6.037   1.366   3.984
  116POPS  H16Y13041   6.073   1.482   3.853
  116POPS  H16Z13042   5.902   1.462   3.912
  117POPS     N13043   7.470   5.312   2.079
  117POPS   HN113044   7.524   5.375   2.016
  117POPS   HN213045   7.531   5.283   2.158
  117POPS   HN313046   7.439   5.229   2.023
  117POPS   C1213047   7.353   5.388   2.132
  117POPS  H12A13048   7.288   5.319   2.183
  117POPS   C1313049   7.271   5.453   2.018
  117POPS  O13A13050   7.311   5.443   1.899
  117POPS  O13B13051   7.163   5.512   2.047
  117POPS   C1113052   7.406   5.492   2.236
  117POPS  H11A13053   7.326   5.568   2.251
  117POPS  H11B13054   7.495   5.547   2.199
  117POPS     P13055   7.553   5.347   2.411
  117POPS   O1313056   7.618   5.288   2.292
  117POPS   O1413057   7.508   5.255   2.516
  117POPS   O1213058   7.430   5.433   2.363
  117POPS   O1113059   7.658   5.451   2.466
  117POPS    C113060   7.629   5.577   2.526
  117POPS    HA13061   7.520   5.594   2.541
  117POPS    HB13062   7.666   5.657   2.458
  117POPS    C213063   7.700   5.587   2.663
  117POPS    HS13064   7.793   5.526   2.660
  117POPS   O2113065   7.608   5.540   2.762
  117POPS   C2113066   7.599   5.407   2.772
  117POPS   O2213067   7.686   5.328   2.738
  117POPS   C2213068   7.467   5.376   2.845
  117POPS   H2R13069   7.386   5.413   2.779
  117POPS   H2S13070   7.464   5.436   2.939
  117POPS    C313071   7.746   5.733   2.697
  117POPS    HX13072   7.661   5.788   2.743
  117POPS    HY13073   7.766   5.784   2.600
  117POPS   O3113074   7.869   5.740   2.774
  117POPS   C3113075   7.853   5.767   2.904
  117POPS   O3213076   7.747   5.765   2.963
  117POPS   C3213077   7.984   5.819   2.967
  117POPS   H2X13078   7.951   5.871   3.060
  117POPS   H2Y13079   8.022   5.896   2.896
  117POPS   C2313080   7.441   5.227   2.878
  117POPS   H3R13081   7.506   5.162   2.815
  117POPS   H3S13082   7.337   5.203   2.848
  117POPS   C2413083   7.455   5.188   3.026
  117POPS   H4R13084   7.557   5.210   3.063
  117POPS   H4S13085   7.441   5.078   3.033
  117POPS   C2513086   7.350   5.255   3.117
  117POPS   H5R13087   7.252   5.253   3.065
  117POPS   H5S13088   7.376   5.361   3.135
  117POPS   C2613089   7.332   5.183   3.252
  117POPS   H6R13090   7.424   5.193   3.314
  117POPS   H6S13091   7.321   5.074   3.230
  117POPS   C2713092   7.206   5.228   3.329
  117POPS   H7R13093   7.177   5.146   3.398
  117POPS   H7S13094   7.124   5.241   3.255
  117POPS   C2813095   7.217   5.357   3.410
  117POPS   H8R13096   7.119   5.378   3.457
  117POPS   H8S13097   7.240   5.441   3.341
  117POPS   C2913098   7.321   5.338   3.516
  117POPS   H9113099   7.298   5.262   3.592
  117POPS  C21013100   7.437   5.405   3.524
  117POPS  H10113101   7.510   5.373   3.600
  117POPS  C21113102   7.491   5.511   3.433
  117POPS  H11R13103   7.433   5.522   3.339
  117POPS  H11S13104   7.594   5.479   3.406
  117POPS  C21213105   7.504   5.648   3.502
  117POPS  H12R13106   7.564   5.715   3.437
  117POPS  H12S13107   7.559   5.636   3.598
  117POPS  C21313108   7.369   5.714   3.529
  117POPS  H13R13109   7.302   5.644   3.584
  117POPS  H13S13110   7.322   5.737   3.431
  117POPS  C21413111   7.381   5.844   3.609
  117POPS  H14R13112   7.283   5.897   3.600
  117POPS  H14S13113   7.459   5.909   3.565
  117POPS  C21513114   7.410   5.822   3.758
  117POPS  H15R13115   7.511   5.780   3.773
  117POPS  H15S13116   7.337   5.747   3.796
  117POPS  C21613117   7.394   5.952   3.836
  117POPS  H16R13118   7.313   6.010   3.786
  117POPS  H16S13119   7.486   6.013   3.829
  117POPS  C21713120   7.349   5.935   3.982
  117POPS  H17R13121   7.287   5.843   3.990
  117POPS  H17S13122   7.285   6.022   4.008
  117POPS  C21813123   7.461   5.925   4.084
  117POPS  H18R13124   7.424   5.953   4.185
  117POPS  H18S13125   7.544   5.993   4.057
  117POPS  H18T13126   7.498   5.820   4.090
  117POPS   C3313127   8.102   5.726   3.007
  117POPS   H3X13128   8.196   5.771   2.969
  117POPS   H3Y13129   8.096   5.629   2.953
  117POPS   C3413130   8.126   5.696   3.158
  117POPS   H4X13131   8.233   5.714   3.181
  117POPS   H4Y13132   8.112   5.587   3.171
  117POPS   C3513133   8.041   5.768   3.265
  117POPS   H5X13134   7.933   5.754   3.241
  117POPS   H5Y13135   8.063   5.877   3.265
  117POPS   C3613136   8.067   5.714   3.407
  117POPS   H6X13137   8.167   5.748   3.440
  117POPS   H6Y13138   8.070   5.603   3.399
  117POPS   C3713139   7.960   5.748   3.513
  117POPS   H7X13140   7.859   5.744   3.468
  117POPS   H7Y13141   7.976   5.853   3.546
  117POPS   C3813142   7.964   5.655   3.637
  117POPS   H8X13143   7.961   5.720   3.727
  117POPS   H8Y13144   8.064   5.605   3.644
  117POPS   C3913145   7.847   5.555   3.648
  117POPS   H9X13146   7.841   5.497   3.553
  117POPS   H9Y13147   7.753   5.613   3.658
  117POPS  C31013148   7.854   5.447   3.759
  117POPS  H10X13149   7.867   5.493   3.860
  117POPS  H10Y13150   7.943   5.384   3.739
  117POPS  C31113151   7.730   5.355   3.768
  117POPS  H11X13152   7.755   5.264   3.826
  117POPS  H11Y13153   7.707   5.322   3.664
  117POPS  C31213154   7.603   5.417   3.830
  117POPS  H12X13155   7.514   5.364   3.790
  117POPS  H12Y13156   7.594   5.524   3.800
  117POPS  C31313157   7.585   5.402   3.982
  117POPS  H13X13158   7.678   5.434   4.034
  117POPS  H13Y13159   7.569   5.295   4.007
  117POPS  C31413160   7.465   5.485   4.034
  117POPS  H14X13161   7.475   5.589   3.996
  117POPS  H14Y13162   7.470   5.490   4.145
  117POPS  C31513163   7.328   5.429   3.994
  117POPS  H15X13164   7.314   5.330   4.043
  117POPS  H15Y13165   7.324   5.413   3.885
  117POPS  C31613166   7.210   5.521   4.032
  117POPS  H16X13167   7.215   5.550   4.139
  117POPS  H16Y13168   7.113   5.470   4.014
  117POPS  H16Z13169   7.213   5.614   3.971
  118POPS     N13170   5.487   0.017   2.221
  118POPS   HN113171   5.497   0.079   2.138
  118POPS   HN213172   5.454   0.073   2.302
  118POPS   HN313173   5.577  -0.029   2.243
  118POPS   C1213174   5.386  -0.090   2.195
  118POPS  H12A13175   5.432  -0.185   2.218
  118POPS   C1313176   5.336  -0.095   2.049
  118POPS  O13A13177   5.360  -0.002   1.967
  118POPS  O13B13178   5.272  -0.197   2.013
  118POPS   C1113179   5.264  -0.073   2.289
  118POPS  H11A13180   5.203  -0.166   2.285
  118POPS  H11B13181   5.199   0.008   2.250
  118POPS     P13182   5.289   0.090   2.489
  118POPS   O1313183   5.367   0.179   2.399
  118POPS   O1413184   5.323   0.087   2.632
  118POPS   O1213185   5.305  -0.053   2.425
  118POPS   O1113186   5.133   0.111   2.465
  118POPS    C113187   5.038   0.016   2.516
  118POPS    HA13188   5.086  -0.072   2.562
  118POPS    HB13189   4.976  -0.021   2.432
  118POPS    C213190   4.944   0.077   2.624
  118POPS    HS13191   4.895   0.167   2.580
  118POPS   O2113192   5.018   0.111   2.741
  118POPS   C2113193   5.075   0.230   2.739
  118POPS   O2213194   5.070   0.311   2.648
  118POPS   C2213195   5.133   0.259   2.876
  118POPS   H2R13196   5.212   0.335   2.861
  118POPS   H2S13197   5.178   0.167   2.918
  118POPS    C313198   4.827  -0.019   2.664
  118POPS    HX13199   4.771  -0.040   2.570
  118POPS    HY13200   4.759   0.038   2.730
  118POPS   O3113201   4.869  -0.147   2.718
  118POPS   C3113202   4.821  -0.179   2.839
  118POPS   O3213203   4.755  -0.108   2.911
  118POPS   C3213204   4.850  -0.327   2.870
  118POPS   H2X13205   4.949  -0.351   2.826
  118POPS   H2Y13206   4.773  -0.388   2.819
  118POPS   C2313207   5.020   0.316   2.964
  118POPS   H3R13208   4.948   0.372   2.900
  118POPS   H3S13209   5.065   0.391   3.033
  118POPS   C2413210   4.938   0.211   3.040
  118POPS   H4R13211   4.906   0.132   2.970
  118POPS   H4S13212   4.845   0.257   3.080
  118POPS   C2513213   5.013   0.146   3.157
  118POPS   H5R13214   5.096   0.086   3.114
  118POPS   H5S13215   4.943   0.074   3.206
  118POPS   C2613216   5.067   0.241   3.265
  118POPS   H6R13217   4.987   0.258   3.340
  118POPS   H6S13218   5.094   0.340   3.223
  118POPS   C2713219   5.192   0.186   3.334
  118POPS   H7R13220   5.170   0.082   3.367
  118POPS   H7S13221   5.212   0.246   3.425
  118POPS   C2813222   5.317   0.190   3.243
  118POPS   H8R13223   5.352   0.295   3.237
  118POPS   H8S13224   5.288   0.162   3.139
  118POPS   C2913225   5.430   0.098   3.285
  118POPS   H9113226   5.448   0.014   3.217
  118POPS  C21013227   5.506   0.113   3.394
  118POPS  H10113228   5.585   0.039   3.415
  118POPS  C21113229   5.491   0.224   3.494
  118POPS  H11R13230   5.442   0.312   3.447
  118POPS  H11S13231   5.591   0.260   3.528
  118POPS  C21213232   5.406   0.183   3.615
  118POPS  H12R13233   5.317   0.127   3.581
  118POPS  H12S13234   5.369   0.274   3.667
  118POPS  C21313235   5.484   0.100   3.716
  118POPS  H13R13236   5.592   0.126   3.709
  118POPS  H13S13237   5.470  -0.007   3.689
  118POPS  C21413238   5.442   0.116   3.861
  118POPS  H14R13239   5.341   0.069   3.872
  118POPS  H14S13240   5.435   0.223   3.889
  118POPS  C21513241   5.539   0.045   3.955
  118POPS  H15R13242   5.629   0.109   3.967
  118POPS  H15S13243   5.572  -0.050   3.908
  118POPS  C21613244   5.478   0.013   4.091
  118POPS  H16R13245   5.412  -0.076   4.081
  118POPS  H16S13246   5.415   0.098   4.124
  118POPS  C21713247   5.588  -0.015   4.194
  118POPS  H17R13248   5.541  -0.053   4.287
  118POPS  H17S13249   5.640   0.080   4.219
  118POPS  C21813250   5.690  -0.116   4.146
  118POPS  H18R13251   5.745  -0.162   4.231
  118POPS  H18S13252   5.762  -0.070   4.075
  118POPS  H18T13253   5.640  -0.201   4.095
  118POPS   C3313254   4.852  -0.359   3.023
  118POPS   H3X13255   4.754  -0.334   3.070
  118POPS   H3Y13256   4.926  -0.287   3.065
  118POPS   C3413257   4.892  -0.504   3.057
  118POPS   H4X13258   4.950  -0.539   2.969
  118POPS   H4Y13259   4.801  -0.567   3.064
  118POPS   C3513260   4.987  -0.532   3.178
  118POPS   H5X13261   5.074  -0.463   3.173
  118POPS   H5Y13262   5.033  -0.632   3.163
  118POPS   C3613263   4.930  -0.521   3.321
  118POPS   H6X13264   4.854  -0.600   3.340
  118POPS   H6Y13265   4.879  -0.422   3.326
  118POPS   C3713266   5.039  -0.522   3.431
  118POPS   H7X13267   5.131  -0.477   3.388
  118POPS   H7Y13268   5.062  -0.628   3.455
  118POPS   C3813269   5.008  -0.445   3.563
  118POPS   H8X13270   4.971  -0.517   3.640
  118POPS   H8Y13271   4.926  -0.373   3.546
  118POPS   C3913272   5.126  -0.362   3.620
  118POPS   H9X13273   5.163  -0.291   3.543
  118POPS   H9Y13274   5.212  -0.430   3.641
  118POPS  C31013275   5.097  -0.280   3.748
  118POPS  H10X13276   5.191  -0.273   3.806
  118POPS  H10Y13277   5.021  -0.331   3.811
  118POPS  C31113278   5.049  -0.136   3.721
  118POPS  H11X13279   4.942  -0.141   3.693
  118POPS  H11Y13280   5.105  -0.098   3.632
  118POPS  C31213281   5.070  -0.033   3.834
  118POPS  H12X13282   5.165  -0.054   3.887
  118POPS  H12Y13283   4.987  -0.041   3.907
  118POPS  C31313284   5.078   0.110   3.775
  118POPS  H13X13285   5.006   0.118   3.691
  118POPS  H13Y13286   5.179   0.121   3.732
  118POPS  C31413287   5.053   0.232   3.866
  118POPS  H14X13288   4.944   0.243   3.887
  118POPS  H14Y13289   5.083   0.322   3.807
  118POPS  C31513290   5.127   0.239   4.000
  118POPS  H15X13291   5.146   0.345   4.024
  118POPS  H15Y13292   5.226   0.189   3.993
  118POPS  C31613293   5.048   0.178   4.115
  118POPS  H16X13294   5.111   0.174   4.206
  118POPS  H16Y13295   5.014   0.075   4.091
  118POPS  H16Z13296   4.959   0.241   4.137
  119POPS     N13297   0.053   6.781   2.336
  119POPS   HN113298   0.004   6.716   2.401
  119POPS   HN213299   0.066   6.732   2.245
  119POPS   HN313300   0.147   6.812   2.369
  119POPS   C1213301  -0.035   6.898   2.311
  119POPS  H12A13302  -0.031   6.961   2.398
  119POPS   C1313303  -0.181   6.849   2.296
  119POPS  O13A13304  -0.208   6.728   2.319
  119POPS  O13B13305  -0.267   6.933   2.258
  119POPS   C1113306   0.012   6.978   2.184
  119POPS  H11A13307   0.007   7.087   2.208
  119POPS  H11B13308  -0.063   6.963   2.103
  119POPS     P13309   0.276   6.976   2.206
  119POPS   O1313310   0.366   7.044   2.110
  119POPS   O1413311   0.320   6.848   2.268
  119POPS   O1213312   0.140   6.942   2.132
  119POPS   O1113313   0.227   7.072   2.321
  119POPS    C113314   0.308   7.099   2.436
  119POPS    HA13315   0.330   7.208   2.440
  119POPS    HB13316   0.407   7.049   2.430
  119POPS    C213317   0.243   7.059   2.573
  119POPS    HS13318   0.325   7.064   2.647
  119POPS   O2113319   0.183   6.925   2.565
  119POPS   C2113320   0.176   6.867   2.686
  119POPS   O2213321   0.231   6.910   2.785
  119POPS   C2213322   0.092   6.739   2.684
  119POPS   H2R13323   0.161   6.654   2.661
  119POPS   H2S13324   0.016   6.748   2.603
  119POPS    C313325   0.138   7.166   2.616
  119POPS    HX13326   0.046   7.158   2.553
  119POPS    HY13327   0.183   7.265   2.593
  119POPS   O3113328   0.111   7.163   2.758
  119POPS   C3113329   0.003   7.097   2.797
  119POPS   O3213330  -0.073   7.038   2.722
  119POPS   C3213331  -0.008   7.102   2.949
  119POPS   H2X13332  -0.027   7.208   2.978
  119POPS   H2Y13333   0.089   7.070   2.993
  119POPS   C2313334   0.015   6.708   2.817
  119POPS   H3R13335  -0.030   6.607   2.809
  119POPS   H3S13336  -0.069   6.780   2.827
  119POPS   C2413337   0.100   6.714   2.945
  119POPS   H4R13338   0.117   6.822   2.967
  119POPS   H4S13339   0.200   6.670   2.926
  119POPS   C2513340   0.036   6.651   3.070
  119POPS   H5R13341   0.039   6.540   3.062
  119POPS   H5S13342  -0.071   6.680   3.068
  119POPS   C2613343   0.094   6.695   3.207
  119POPS   H6R13344   0.185   6.636   3.231
  119POPS   H6S13345   0.020   6.669   3.286
  119POPS   C2713346   0.129   6.845   3.221
  119POPS   H7R13347   0.038   6.902   3.194
  119POPS   H7S13348   0.209   6.873   3.148
  119POPS   C2813349   0.175   6.887   3.362
  119POPS   H8R13350   0.283   6.860   3.370
  119POPS   H8S13351   0.121   6.825   3.436
  119POPS   C2913352   0.162   7.035   3.391
  119POPS   H9113353   0.218   7.100   3.322
  119POPS  C21013354   0.089   7.093   3.489
  119POPS  H10113355   0.090   7.202   3.497
  119POPS  C21113356   0.004   7.023   3.592
  119POPS  H11R13357  -0.010   6.916   3.567
  119POPS  H11S13358  -0.098   7.068   3.592
  119POPS  C21213359   0.052   7.028   3.738
  119POPS  H12R13360   0.154   6.983   3.747
  119POPS  H12S13361  -0.017   6.965   3.797
  119POPS  C21313362   0.050   7.168   3.802
  119POPS  H13R13363  -0.045   7.220   3.777
  119POPS  H13S13364   0.134   7.228   3.761
  119POPS  C21413365   0.062   7.156   3.954
  119POPS  H14R13366   0.148   7.089   3.973
  119POPS  H14S13367  -0.029   7.109   3.995
  119POPS  C21513368   0.081   7.291   4.025
  119POPS  H15R13369  -0.017   7.342   4.023
  119POPS  H15S13370   0.154   7.352   3.967
  119POPS  C21613371   0.131   7.283   4.170
  119POPS  H16R13372   0.048   7.253   4.238
  119POPS  H16S13373   0.165   7.384   4.201
  119POPS  C21713374   0.246   7.183   4.187
  119POPS  H17R13375   0.304   7.181   4.092
  119POPS  H17S13376   0.201   7.083   4.204
  119POPS  C21813377   0.344   7.213   4.299
  119POPS  H18R13378   0.404   7.303   4.273
  119POPS  H18S13379   0.416   7.129   4.311
  119POPS  H18T13380   0.292   7.232   4.396
  119POPS   C3313381  -0.122   7.012   3.001
  119POPS   H3X13382  -0.088   6.906   3.005
  119POPS   H3Y13383  -0.210   7.017   2.934
  119POPS   C3413384  -0.169   7.057   3.139
  119POPS   H4X13385  -0.211   7.159   3.122
  119POPS   H4Y13386  -0.084   7.066   3.210
  119POPS   C3513387  -0.280   6.970   3.201
  119POPS   H5X13388  -0.364   6.977   3.128
  119POPS   H5Y13389  -0.313   7.014   3.297
  119POPS   C3613390  -0.241   6.822   3.219
  119POPS   H6X13391  -0.143   6.818   3.271
  119POPS   H6Y13392  -0.232   6.781   3.117
  119POPS   C3713393  -0.337   6.730   3.296
  119POPS   H7X13394  -0.299   6.626   3.289
  119POPS   H7Y13395  -0.436   6.729   3.245
  119POPS   C3813396  -0.357   6.764   3.444
  119POPS   H8X13397  -0.450   6.713   3.478
  119POPS   H8Y13398  -0.373   6.873   3.457
  119POPS   C3913399  -0.244   6.717   3.537
  119POPS   H9X13400  -0.149   6.767   3.507
  119POPS   H9Y13401  -0.229   6.608   3.525
  119POPS  C31013402  -0.278   6.748   3.683
  119POPS  H10X13403  -0.372   6.696   3.709
  119POPS  H10Y13404  -0.296   6.857   3.693
  119POPS  C31113405  -0.170   6.707   3.784
  119POPS  H11X13406  -0.075   6.758   3.759
  119POPS  H11Y13407  -0.153   6.597   3.776
  119POPS  C31213408  -0.213   6.741   3.927
  119POPS  H12X13409  -0.306   6.685   3.950
  119POPS  H12Y13410  -0.238   6.849   3.933
  119POPS  C31313411  -0.108   6.709   4.034
  119POPS  H13X13412  -0.069   6.605   4.019
  119POPS  H13Y13413  -0.155   6.712   4.135
  119POPS  C31413414   0.008   6.808   4.035
  119POPS  H14X13415  -0.034   6.911   4.038
  119POPS  H14Y13416   0.065   6.799   3.940
  119POPS  C31513417   0.103   6.792   4.155
  119POPS  H15X13418   0.101   6.686   4.188
  119POPS  H15Y13419   0.064   6.854   4.239
  119POPS  C31613420   0.247   6.832   4.124
  119POPS  H16X13421   0.309   6.833   4.216
  119POPS  H16Y13422   0.252   6.932   4.075
  119POPS  H16Z13423   0.292   6.761   4.051
  120POPS     N13424   0.019   0.487   2.283
  120POPS   HN113425   0.053   0.389   2.283
  120POPS   HN213426   0.003   0.519   2.381
  120POPS   HN313427  -0.072   0.497   2.233
  120POPS   C1213428   0.120   0.578   2.219
  120POPS  H12A13429   0.070   0.670   2.193
  120POPS   C1313430   0.184   0.521   2.090
  120POPS  O13A13431   0.147   0.409   2.046
  120POPS  O13B13432   0.273   0.588   2.031
  120POPS   C1113433   0.237   0.611   2.318
  120POPS  H11A13434   0.312   0.671   2.263
  120POPS  H11B13435   0.289   0.517   2.348
  120POPS     P13436   0.135   0.626   2.561
  120POPS   O1313437  -0.004   0.589   2.526
  120POPS   O1413438   0.162   0.718   2.674
  120POPS   O1213439   0.194   0.690   2.429
  120POPS   O1113440   0.220   0.493   2.568
  120POPS    C113441   0.341   0.482   2.643
  120POPS    HA13442   0.362   0.573   2.704
  120POPS    HB13443   0.427   0.467   2.575
  120POPS    C213444   0.333   0.362   2.741
  120POPS    HS13445   0.309   0.272   2.680
  120POPS   O2113446   0.226   0.389   2.833
  120POPS   C2113447   0.184   0.282   2.899
  120POPS   O2213448   0.240   0.174   2.900
  120POPS   C2213449   0.048   0.309   2.963
  120POPS   H2R13450   0.020   0.218   3.019
  120POPS   H2S13451  -0.022   0.323   2.878
  120POPS    C313452   0.470   0.339   2.811
  120POPS    HX13453   0.542   0.307   2.732
  120POPS    HY13454   0.466   0.255   2.884
  120POPS   O3113455   0.517   0.462   2.868
  120POPS   C3113456   0.462   0.488   2.986
  120POPS   O3213457   0.422   0.404   3.065
  120POPS   C3213458   0.453   0.638   3.007
  120POPS   H2X13459   0.436   0.687   2.908
  120POPS   H2Y13460   0.550   0.672   3.048
  120POPS   C2313461   0.035   0.431   3.055
  120POPS   H3R13462  -0.074   0.450   3.071
  120POPS   H3S13463   0.075   0.522   3.006
  120POPS   C2413464   0.096   0.407   3.193
  120POPS   H4R13465   0.204   0.384   3.183
  120POPS   H4S13466   0.045   0.319   3.238
  120POPS   C2513467   0.078   0.525   3.289
  120POPS   H5R13468  -0.028   0.530   3.322
  120POPS   H5S13469   0.100   0.620   3.235
  120POPS   C2613470   0.169   0.516   3.412
  120POPS   H6R13471   0.153   0.607   3.473
  120POPS   H6S13472   0.275   0.514   3.377
  120POPS   C2713473   0.149   0.391   3.499
  120POPS   H7R13474   0.215   0.398   3.588
  120POPS   H7S13475   0.181   0.302   3.442
  120POPS   C2813476   0.004   0.371   3.546
  120POPS   H8R13477   0.000   0.274   3.601
  120POPS   H8S13478  -0.063   0.357   3.458
  120POPS   C2913479  -0.044   0.486   3.630
  120POPS   H9113480  -0.064   0.579   3.575
  120POPS  C21013481  -0.064   0.483   3.763
  120POPS  H10113482  -0.099   0.574   3.813
  120POPS  C21113483  -0.042   0.363   3.852
  120POPS  H11R13484  -0.066   0.268   3.800
  120POPS  H11S13485  -0.107   0.367   3.943
  120POPS  C21213486   0.103   0.361   3.897
  120POPS  H12R13487   0.123   0.451   3.959
  120POPS  H12S13488   0.169   0.364   3.807
  120POPS  C21313489   0.144   0.240   3.979
  120POPS  H13R13490   0.100   0.148   3.934
  120POPS  H13S13491   0.102   0.252   4.081
  120POPS  C21413492   0.297   0.225   3.982
  120POPS  H14R13493   0.333   0.205   3.879
  120POPS  H14S13494   0.324   0.138   4.045
  120POPS  C21513495   0.370   0.350   4.036
  120POPS  H15R13496   0.362   0.434   3.963
  120POPS  H15S13497   0.478   0.322   4.041
  120POPS  C21613498   0.318   0.396   4.172
  120POPS  H16R13499   0.287   0.304   4.227
  120POPS  H16S13500   0.225   0.456   4.160
  120POPS  C21713501   0.417   0.464   4.266
  120POPS  H17R13502   0.368   0.477   4.365
  120POPS  H17S13503   0.438   0.567   4.228
  120POPS  C21813504   0.546   0.385   4.287
  120POPS  H18R13505   0.612   0.439   4.359
  120POPS  H18S13506   0.604   0.373   4.193
  120POPS  H18T13507   0.523   0.284   4.326
  120POPS   C3313508   0.334   0.668   3.101
  120POPS   H3X13509   0.347   0.611   3.195
  120POPS   H3Y13510   0.241   0.632   3.053
  120POPS   C3413511   0.315   0.815   3.136
  120POPS   H4X13512   0.235   0.822   3.213
  120POPS   H4Y13513   0.279   0.869   3.046
  120POPS   C3513514   0.442   0.881   3.189
  120POPS   H5X13515   0.418   0.984   3.224
  120POPS   H5Y13516   0.513   0.892   3.105
  120POPS   C3613517   0.512   0.805   3.302
  120POPS   H6X13518   0.601   0.866   3.328
  120POPS   H6Y13519   0.547   0.705   3.268
  120POPS   C3713520   0.435   0.785   3.432
  120POPS   H7X13521   0.374   0.692   3.424
  120POPS   H7Y13522   0.366   0.870   3.447
  120POPS   C3813523   0.531   0.776   3.552
  120POPS   H8X13524   0.599   0.864   3.550
  120POPS   H8Y13525   0.593   0.684   3.542
  120POPS   C3913526   0.458   0.776   3.686
  120POPS   H9X13527   0.407   0.873   3.703
  120POPS   H9Y13528   0.534   0.763   3.767
  120POPS  C31013529   0.355   0.665   3.700
  120POPS  H10X13530   0.404   0.567   3.681
  120POPS  H10Y13531   0.275   0.678   3.624
  120POPS  C31113532   0.289   0.663   3.837
  120POPS  H11X13533   0.366   0.657   3.917
  120POPS  H11Y13534   0.229   0.569   3.839
  120POPS  C31213535   0.191   0.778   3.864
  120POPS  H12X13536   0.129   0.792   3.773
  120POPS  H12Y13537   0.249   0.872   3.882
  120POPS  C31313538   0.098   0.752   3.983
  120POPS  H13X13539   0.040   0.659   3.964
  120POPS  H13Y13540   0.024   0.835   3.991
  120POPS  C31413541   0.171   0.738   4.117
  120POPS  H14X13542   0.218   0.836   4.142
  120POPS  H14Y13543   0.254   0.664   4.108
  120POPS  C31513544   0.079   0.694   4.231
  120POPS  H15X13545   0.047   0.589   4.215
  120POPS  H15Y13546  -0.014   0.755   4.229
  120POPS  C31613547   0.142   0.708   4.370
  120POPS  H16X13548   0.229   0.640   4.380
  120POPS  H16Y13549   0.069   0.684   4.449
  120POPS  H16Z13550   0.179   0.812   4.385
  121POPC     N13551   4.468   3.132   6.353
  121POPC   C1213552   4.399   3.201   6.236
  121POPC  H12A13553   4.294   3.218   6.258
  121POPC  H12B13554   4.403   3.136   6.150
  121POPC   C1313555   4.602   3.078   6.311
  121POPC  H13A13556   4.664   3.156   6.269
  121POPC  H13B13557   4.653   3.033   6.394
  121POPC  H13C13558   4.594   3.004   6.233
  121POPC   C1413559   4.494   3.229   6.464
  121POPC  H14A13560   4.562   3.305   6.429
  121POPC  H14B13561   4.404   3.279   6.497
  121POPC  H14C13562   4.541   3.179   6.548
  121POPC   C1513563   4.388   3.016   6.404
  121POPC  H15A13564   4.383   2.937   6.331
  121POPC  H15B13565   4.289   3.046   6.436
  121POPC  H15C13566   4.440   2.974   6.489
  121POPC   C1113567   4.457   3.335   6.185
  121POPC  H11A13568   4.458   3.411   6.266
  121POPC  H11B13569   4.393   3.376   6.104
  121POPC     P13570   4.618   3.247   5.998
  121POPC   O1313571   4.741   3.169   6.020
  121POPC   O1413572   4.614   3.350   5.893
  121POPC   O1213573   4.590   3.318   6.138
  121POPC   O1113574   4.495   3.148   5.985
  121POPC    C113575   4.519   3.007   5.968
  121POPC    HA13576   4.539   2.961   6.067
  121POPC    HB13577   4.608   2.986   5.904
  121POPC    C213578   4.398   2.934   5.905
  121POPC    HS13579   4.396   2.833   5.950
  121POPC   O2113580   4.421   2.922   5.765
  121POPC   C2113581   4.342   2.843   5.698
  121POPC   O2213582   4.252   2.774   5.744
  121POPC   C2213583   4.375   2.859   5.550
  121POPC   H2R13584   4.392   2.968   5.533
  121POPC   H2S13585   4.286   2.827   5.492
  121POPC    C313586   4.261   3.004   5.934
  121POPC    HX13587   4.259   3.022   6.043
  121POPC    HY13588   4.179   2.934   5.908
  121POPC   O3113589   4.246   3.124   5.856
  121POPC   C3113590   4.185   3.225   5.915
  121POPC   O3213591   4.126   3.217   6.023
  121POPC   C3213592   4.201   3.352   5.832
  121POPC   H2X13593   4.309   3.376   5.825
  121POPC   H2Y13594   4.151   3.433   5.890
  121POPC   C2313595   4.499   2.780   5.506
  121POPC   H3R13596   4.506   2.785   5.396
  121POPC   H3S13597   4.485   2.673   5.534
  121POPC   C2413598   4.632   2.831   5.564
  121POPC   H4R13599   4.713   2.756   5.547
  121POPC   H4S13600   4.625   2.841   5.674
  121POPC   C2513601   4.678   2.965   5.504
  121POPC   H5R13602   4.590   3.018   5.461
  121POPC   H5S13603   4.749   2.946   5.420
  121POPC   C2613604   4.744   3.056   5.608
  121POPC   H6R13605   4.838   3.007   5.642
  121POPC   H6S13606   4.678   3.065   5.696
  121POPC   C2713607   4.776   3.197   5.556
  121POPC   H7R13608   4.839   3.190   5.465
  121POPC   H7S13609   4.835   3.248   5.635
  121POPC   C2813610   4.651   3.282   5.528
  121POPC   H8R13611   4.589   3.286   5.620
  121POPC   H8S13612   4.589   3.234   5.450
  121POPC   C2913613   4.692   3.422   5.489
  121POPC   H9113614   4.718   3.487   5.573
  121POPC  C21013615   4.701   3.471   5.364
  121POPC  H10113616   4.732   3.576   5.351
  121POPC  C21113617   4.671   3.398   5.235
  121POPC  H11R13618   4.651   3.290   5.252
  121POPC  H11S13619   4.757   3.404   5.165
  121POPC  C21213620   4.547   3.462   5.168
  121POPC  H12R13621   4.569   3.567   5.140
  121POPC  H12S13622   4.466   3.461   5.244
  121POPC  C21313623   4.493   3.388   5.047
  121POPC  H13R13624   4.383   3.402   5.041
  121POPC  H13S13625   4.512   3.279   5.062
  121POPC  C21413626   4.554   3.430   4.913
  121POPC  H14R13627   4.661   3.402   4.911
  121POPC  H14S13628   4.547   3.540   4.900
  121POPC  C21513629   4.479   3.361   4.798
  121POPC  H15R13630   4.378   3.405   4.787
  121POPC  H15S13631   4.466   3.254   4.826
  121POPC  C21613632   4.554   3.366   4.666
  121POPC  H16R13633   4.656   3.326   4.682
  121POPC  H16S13634   4.564   3.472   4.631
  121POPC  C21713635   4.486   3.282   4.558
  121POPC  H17R13636   4.440   3.194   4.608
  121POPC  H17S13637   4.562   3.245   4.487
  121POPC  C21813638   4.378   3.357   4.480
  121POPC  H18R13639   4.426   3.440   4.424
  121POPC  H18S13640   4.301   3.398   4.548
  121POPC  H18T13641   4.329   3.289   4.407
  121POPC   C3313642   4.137   3.350   5.691
  121POPC   H3X13643   4.130   3.457   5.660
  121POPC   H3Y13644   4.032   3.314   5.695
  121POPC   C3413645   4.218   3.281   5.578
  121POPC   H4X13646   4.229   3.173   5.601
  121POPC   H4Y13647   4.319   3.325   5.574
  121POPC   C3513648   4.149   3.299   5.441
  121POPC   H5X13649   4.134   3.408   5.425
  121POPC   H5Y13650   4.047   3.255   5.448
  121POPC   C3613651   4.222   3.242   5.316
  121POPC   H6X13652   4.307   3.309   5.290
  121POPC   H6Y13653   4.151   3.244   5.231
  121POPC   C3713654   4.276   3.100   5.332
  121POPC   H7X13655   4.207   3.044   5.399
  121POPC   H7Y13656   4.375   3.106   5.384
  121POPC   C3813657   4.290   3.015   5.204
  121POPC   H8X13658   4.200   3.024   5.140
  121POPC   H8Y13659   4.298   2.909   5.236
  121POPC   C3913660   4.417   3.049   5.123
  121POPC   H9X13661   4.483   3.109   5.189
  121POPC   H9Y13662   4.389   3.113   5.036
  121POPC  C31013663   4.498   2.928   5.075
  121POPC  H10X13664   4.463   2.896   4.974
  121POPC  H10Y13665   4.479   2.843   5.144
  121POPC  C31113666   4.650   2.952   5.076
  121POPC  H11X13667   4.703   2.856   5.057
  121POPC  H11Y13668   4.678   2.985   5.178
  121POPC  C31213669   4.703   3.056   4.975
  121POPC  H12X13670   4.798   3.095   5.016
  121POPC  H12Y13671   4.633   3.142   4.966
  121POPC  C31313672   4.734   3.000   4.836
  121POPC  H13X13673   4.800   2.911   4.843
  121POPC  H13Y13674   4.792   3.079   4.782
  121POPC  C31413675   4.610   2.968   4.752
  121POPC  H14X13676   4.531   3.043   4.774
  121POPC  H14Y13677   4.571   2.868   4.779
  121POPC  C31513678   4.642   2.974   4.602
  121POPC  H15X13679   4.723   2.900   4.582
  121POPC  H15Y13680   4.683   3.075   4.580
  121POPC  C31613681   4.525   2.946   4.507
  121POPC  H16X13682   4.553   2.972   4.403
  121POPC  H16Y13683   4.434   3.004   4.535
  121POPC  H16Z13684   4.498   2.839   4.510
  122POPC     N13685   2.991   2.673   6.123
  122POPC   C1213686   3.045   2.565   6.215
  122POPC  H12A13687   2.996   2.473   6.189
  122POPC  H12B13688   3.016   2.587   6.316
  122POPC   C1313689   3.013   2.635   5.980
  122POPC  H13A13690   2.978   2.534   5.962
  122POPC  H13B13691   2.958   2.701   5.914
  122POPC  H13C13692   3.117   2.642   5.954
  122POPC   C1413693   2.843   2.684   6.143
  122POPC  H14A13694   2.794   2.589   6.131
  122POPC  H14B13695   2.816   2.726   6.239
  122POPC  H14C13696   2.797   2.750   6.070
  122POPC   C1513697   3.054   2.807   6.146
  122POPC  H15A13698   3.160   2.801   6.128
  122POPC  H15B13699   3.039   2.841   6.248
  122POPC  H15C13700   3.012   2.881   6.079
  122POPC   C1113701   3.198   2.541   6.215
  122POPC  H11A13702   3.233   2.533   6.109
  122POPC  H11B13703   3.219   2.443   6.261
  122POPC     P13704   3.406   2.699   6.241
  122POPC   O1313705   3.500   2.588   6.215
  122POPC   O1413706   3.446   2.800   6.342
  122POPC   O1213707   3.266   2.642   6.290
  122POPC   O1113708   3.364   2.771   6.108
  122POPC    C113709   3.396   2.722   5.978
  122POPC    HA13710   3.341   2.629   5.953
  122POPC    HB13711   3.505   2.701   5.969
  122POPC    C213712   3.361   2.831   5.875
  122POPC    HS13713   3.399   2.925   5.920
  122POPC   O2113714   3.218   2.834   5.853
  122POPC   C2113715   3.174   2.957   5.821
  122POPC   O2213716   3.229   3.060   5.854
  122POPC   C2213717   3.047   2.946   5.738
  122POPC   H2R13718   2.962   2.930   5.808
  122POPC   H2S13719   3.056   2.857   5.672
  122POPC    C313720   3.431   2.816   5.736
  122POPC    HX13721   3.541   2.819   5.753
  122POPC    HY13722   3.400   2.909   5.683
  122POPC   O3113723   3.396   2.698   5.661
  122POPC   C3113724   3.434   2.715   5.532
  122POPC   O3213725   3.478   2.820   5.488
  122POPC   C3213726   3.423   2.587   5.451
  122POPC   H2X13727   3.317   2.570   5.423
  122POPC   H2Y13728   3.458   2.503   5.515
  122POPC   C2313729   3.020   3.073   5.653
  122POPC   H3R13730   3.037   3.163   5.715
  122POPC   H3S13731   2.913   3.075   5.623
  122POPC   C2413732   3.105   3.084   5.525
  122POPC   H4R13733   3.205   3.038   5.539
  122POPC   H4S13734   3.123   3.193   5.507
  122POPC   C2513735   3.038   3.030   5.397
  122POPC   H5R13736   3.094   3.070   5.310
  122POPC   H5S13737   2.934   3.067   5.391
  122POPC   C2613738   3.039   2.876   5.387
  122POPC   H6R13739   2.988   2.834   5.476
  122POPC   H6S13740   3.144   2.841   5.387
  122POPC   C2713741   2.966   2.821   5.263
  122POPC   H7R13742   2.860   2.854   5.267
  122POPC   H7S13743   2.965   2.710   5.270
  122POPC   C2813744   3.024   2.863   5.126
  122POPC   H8R13745   3.011   2.973   5.115
  122POPC   H8S13746   2.960   2.817   5.047
  122POPC   C2913747   3.168   2.826   5.101
  122POPC   H9113748   3.237   2.911   5.094
  122POPC  C21013749   3.218   2.701   5.088
  122POPC  H10113750   3.325   2.689   5.068
  122POPC  C21113751   3.140   2.572   5.096
  122POPC  H11R13752   3.031   2.588   5.099
  122POPC  H11S13753   3.168   2.520   5.190
  122POPC  C21213754   3.170   2.475   4.980
  122POPC  H12R13755   3.133   2.374   5.007
  122POPC  H12S13756   3.280   2.462   4.966
  122POPC  C21313757   3.113   2.517   4.844
  122POPC  H13R13758   3.157   2.615   4.816
  122POPC  H13S13759   3.003   2.530   4.852
  122POPC  C21413760   3.147   2.411   4.739
  122POPC  H14R13761   3.099   2.314   4.767
  122POPC  H14S13762   3.257   2.393   4.741
  122POPC  C21513763   3.104   2.447   4.596
  122POPC  H15R13764   2.994   2.456   4.592
  122POPC  H15S13765   3.132   2.362   4.529
  122POPC  C21613766   3.168   2.576   4.542
  122POPC  H16R13767   3.127   2.663   4.596
  122POPC  H16S13768   3.138   2.587   4.435
  122POPC  C21713769   3.322   2.581   4.551
  122POPC  H17R13770   3.350   2.590   4.658
  122POPC  H17S13771   3.356   2.673   4.501
  122POPC  C21813772   3.396   2.460   4.493
  122POPC  H18R13773   3.379   2.369   4.554
  122POPC  H18S13774   3.505   2.480   4.490
  122POPC  H18T13775   3.362   2.438   4.389
  122POPC   C3313776   3.511   2.597   5.324
  122POPC   H3X13777   3.605   2.654   5.343
  122POPC   H3Y13778   3.455   2.657   5.249
  122POPC   C3413779   3.553   2.461   5.266
  122POPC   H4X13780   3.500   2.380   5.319
  122POPC   H4Y13781   3.662   2.445   5.281
  122POPC   C3513782   3.522   2.449   5.116
  122POPC   H5X13783   3.411   2.454   5.109
  122POPC   H5Y13784   3.554   2.349   5.079
  122POPC   C3613785   3.584   2.559   5.028
  122POPC   H6X13786   3.695   2.552   5.034
  122POPC   H6Y13787   3.556   2.659   5.066
  122POPC   C3713788   3.541   2.551   4.881
  122POPC   H7X13789   3.430   2.549   4.871
  122POPC   H7Y13790   3.579   2.456   4.838
  122POPC   C3813791   3.592   2.670   4.800
  122POPC   H8X13792   3.597   2.641   4.693
  122POPC   H8Y13793   3.694   2.698   4.834
  122POPC   C3913794   3.505   2.794   4.813
  122POPC   H9X13795   3.498   2.824   4.919
  122POPC   H9Y13796   3.402   2.767   4.780
  122POPC  C31013797   3.562   2.909   4.730
  122POPC  H10X13798   3.581   2.875   4.626
  122POPC  H10Y13799   3.659   2.939   4.773
  122POPC  C31113800   3.467   3.029   4.725
  122POPC  H11X13801   3.520   3.118   4.686
  122POPC  H11Y13802   3.433   3.052   4.829
  122POPC  C31213803   3.346   2.998   4.636
  122POPC  H12X13804   3.307   2.896   4.660
  122POPC  H12Y13805   3.380   2.995   4.531
  122POPC  C31313806   3.229   3.094   4.654
  122POPC  H13X13807   3.254   3.195   4.615
  122POPC  H13Y13808   3.208   3.104   4.762
  122POPC  C31413809   3.105   3.039   4.584
  122POPC  H14X13810   3.018   3.105   4.606
  122POPC  H14Y13811   3.085   2.938   4.627
  122POPC  C31513812   3.117   3.023   4.432
  122POPC  H15X13813   3.209   2.966   4.406
  122POPC  H15Y13814   3.126   3.124   4.386
  122POPC  C31613815   2.997   2.949   4.374
  122POPC  H16X13816   2.902   2.998   4.404
  122POPC  H16Y13817   2.996   2.844   4.411
  122POPC  H16Z13818   3.002   2.947   4.263
  123POPC     N13819   3.954   2.709   6.107
  123POPC   C1213820   4.094   2.651   6.130
  123POPC  H12A13821   4.169   2.728   6.115
  123POPC  H12B13822   4.113   2.577   6.053
  123POPC   C1313823   3.859   2.600   6.068
  123POPC  H13A13824   3.885   2.558   5.972
  123POPC  H13B13825   3.864   2.521   6.142
  123POPC  H13C13826   3.757   2.635   6.064
  123POPC   C1413827   3.904   2.766   6.237
  123POPC  H14A13828   3.909   2.687   6.310
  123POPC  H14B13829   3.966   2.847   6.272
  123POPC  H14C13830   3.802   2.798   6.232
  123POPC   C1513831   3.955   2.812   5.999
  123POPC  H15A13832   3.854   2.841   5.972
  123POPC  H15B13833   3.999   2.773   5.908
  123POPC  H15C13834   4.008   2.901   6.028
  123POPC   C1113835   4.123   2.584   6.268
  123POPC  H11A13836   4.141   2.664   6.343
  123POPC  H11B13837   4.219   2.528   6.258
  123POPC     P13838   4.038   2.356   6.369
  123POPC   O1313839   3.906   2.305   6.416
  123POPC   O1413840   4.145   2.359   6.471
  123POPC   O1213841   4.015   2.502   6.312
  123POPC   O1113842   4.088   2.275   6.240
  123POPC    C113843   4.027   2.303   6.114
  123POPC    HA13844   4.029   2.412   6.092
  123POPC    HB13845   3.920   2.271   6.114
  123POPC    C213846   4.102   2.242   5.992
  123POPC    HS13847   4.203   2.212   6.028
  123POPC   O2113848   4.112   2.339   5.885
  123POPC   C2113849   4.210   2.311   5.797
  123POPC   O2213850   4.301   2.233   5.820
  123POPC   C2213851   4.188   2.387   5.666
  123POPC   H2R13852   4.249   2.480   5.672
  123POPC   H2S13853   4.081   2.416   5.661
  123POPC    C313854   4.026   2.117   5.941
  123POPC    HX13855   4.041   2.035   6.014
  123POPC    HY13856   4.074   2.087   5.845
  123POPC   O3113857   3.884   2.146   5.928
  123POPC   C3113858   3.837   2.156   5.805
  123POPC   O3213859   3.886   2.107   5.706
  123POPC   C3213860   3.722   2.255   5.803
  123POPC   H2X13861   3.695   2.286   5.907
  123POPC   H2Y13862   3.634   2.209   5.753
  123POPC   C2313863   4.225   2.310   5.536
  123POPC   H3R13864   4.314   2.245   5.551
  123POPC   H3S13865   4.253   2.385   5.459
  123POPC   C2413866   4.111   2.226   5.474
  123POPC   H4R13867   4.022   2.290   5.459
  123POPC   H4S13868   4.083   2.145   5.544
  123POPC   C2513869   4.150   2.163   5.339
  123POPC   H5R13870   4.242   2.102   5.355
  123POPC   H5S13871   4.175   2.242   5.266
  123POPC   C2613872   4.043   2.069   5.279
  123POPC   H6R13873   4.017   1.993   5.355
  123POPC   H6S13874   4.087   2.016   5.192
  123POPC   C2713875   3.914   2.139   5.233
  123POPC   H7R13876   3.874   2.199   5.317
  123POPC   H7S13877   3.837   2.061   5.210
  123POPC   C2813878   3.929   2.229   5.109
  123POPC   H8R13879   4.012   2.300   5.128
  123POPC   H8S13880   3.836   2.290   5.101
  123POPC   C2913881   3.948   2.155   4.978
  123POPC   H9113882   3.859   2.098   4.946
  123POPC  C21013883   4.056   2.154   4.898
  123POPC  H10113884   4.049   2.096   4.805
  123POPC  C21113885   4.189   2.225   4.917
  123POPC  H11R13886   4.271   2.152   4.931
  123POPC  H11S13887   4.188   2.287   5.009
  123POPC  C21213888   4.225   2.318   4.798
  123POPC  H12R13889   4.248   2.419   4.838
  123POPC  H12S13890   4.136   2.329   4.732
  123POPC  C21313891   4.340   2.275   4.708
  123POPC  H13R13892   4.344   2.164   4.703
  123POPC  H13S13893   4.436   2.310   4.751
  123POPC  C21413894   4.325   2.326   4.563
  123POPC  H14R13895   4.240   2.274   4.513
  123POPC  H14S13896   4.417   2.297   4.508
  123POPC  C21513897   4.305   2.478   4.550
  123POPC  H15R13898   4.372   2.515   4.470
  123POPC  H15S13899   4.334   2.527   4.645
  123POPC  C21613900   4.166   2.522   4.504
  123POPC  H16R13901   4.092   2.485   4.578
  123POPC  H16S13902   4.142   2.473   4.407
  123POPC  C21713903   4.149   2.675   4.486
  123POPC  H17R13904   4.041   2.699   4.480
  123POPC  H17S13905   4.193   2.704   4.388
  123POPC  C21813906   4.212   2.763   4.595
  123POPC  H18R13907   4.169   2.740   4.695
  123POPC  H18S13908   4.193   2.871   4.574
  123POPC  H18T13909   4.322   2.748   4.600
  123POPC   C3313910   3.775   2.373   5.720
  123POPC   H3X13911   3.785   2.337   5.616
  123POPC   H3Y13912   3.875   2.401   5.757
  123POPC   C3413913   3.692   2.501   5.717
  123POPC   H4X13914   3.705   2.557   5.812
  123POPC   H4Y13915   3.584   2.477   5.707
  123POPC   C3513916   3.736   2.586   5.598
  123POPC   H5X13917   3.698   2.690   5.607
  123POPC   H5Y13918   3.693   2.540   5.506
  123POPC   C3613919   3.888   2.588   5.574
  123POPC   H6X13920   3.928   2.485   5.561
  123POPC   H6Y13921   3.938   2.637   5.661
  123POPC   C3713922   3.928   2.660   5.445
  123POPC   H7X13923   4.025   2.711   5.460
  123POPC   H7Y13924   3.849   2.734   5.421
  123POPC   C3813925   3.947   2.569   5.324
  123POPC   H8X13926   3.859   2.502   5.312
  123POPC   H8Y13927   4.036   2.504   5.339
  123POPC   C3913928   3.965   2.653   5.198
  123POPC   H9X13929   4.053   2.720   5.209
  123POPC   H9Y13930   3.875   2.716   5.183
  123POPC  C31013931   3.984   2.564   5.076
  123POPC  H10X13932   3.898   2.495   5.070
  123POPC  H10Y13933   4.076   2.504   5.089
  123POPC  C31113934   3.993   2.639   4.943
  123POPC  H11X13935   4.086   2.700   4.942
  123POPC  H11Y13936   3.907   2.708   4.931
  123POPC  C31213937   3.997   2.537   4.828
  123POPC  H12X13938   4.017   2.438   4.874
  123POPC  H12Y13939   4.082   2.562   4.761
  123POPC  C31313940   3.866   2.525   4.751
  123POPC  H13X13941   3.844   2.621   4.701
  123POPC  H13Y13942   3.789   2.506   4.829
  123POPC  C31413943   3.854   2.410   4.649
  123POPC  H14X13944   3.770   2.344   4.681
  123POPC  H14Y13945   3.946   2.347   4.651
  123POPC  C31513946   3.827   2.459   4.506
  123POPC  H15X13947   3.897   2.542   4.484
  123POPC  H15Y13948   3.724   2.502   4.501
  123POPC  C31613949   3.844   2.353   4.397
  123POPC  H16X13950   3.760   2.280   4.399
  123POPC  H16Y13951   3.939   2.297   4.412
  123POPC  H16Z13952   3.846   2.400   4.297
  124POPC     N13953   5.537   2.894   6.174
  124POPC   C1213954   5.416   2.807   6.140
  124POPC  H12A13955   5.400   2.735   6.218
  124POPC  H12B13956   5.435   2.752   6.049
  124POPC   C1313957   5.521   2.957   6.309
  124POPC  H13A13958   5.602   3.025   6.330
  124POPC  H13B13959   5.431   3.016   6.308
  124POPC  H13C13960   5.510   2.885   6.389
  124POPC   C1413961   5.664   2.815   6.172
  124POPC  H14A13962   5.747   2.878   6.202
  124POPC  H14B13963   5.658   2.732   6.241
  124POPC  H14C13964   5.683   2.776   6.073
  124POPC   C1513965   5.545   3.007   6.076
  124POPC  H15A13966   5.554   2.972   5.974
  124POPC  H15B13967   5.625   3.076   6.099
  124POPC  H15C13968   5.453   3.064   6.081
  124POPC   C1113969   5.280   2.879   6.119
  124POPC  H11A13970   5.203   2.802   6.095
  124POPC  H11B13971   5.287   2.943   6.028
  124POPC     P13972   5.201   3.104   6.235
  124POPC   O1313973   5.322   3.176   6.281
  124POPC   O1413974   5.078   3.122   6.316
  124POPC   O1213975   5.238   2.949   6.236
  124POPC   O1113976   5.175   3.135   6.082
  124POPC    C113977   5.041   3.124   6.031
  124POPC    HA13978   4.978   3.207   6.072
  124POPC    HB13979   4.993   3.029   6.062
  124POPC    C213980   5.029   3.132   5.875
  124POPC    HS13981   4.923   3.112   5.848
  124POPC   O2113982   5.118   3.037   5.813
  124POPC   C2113983   5.074   2.912   5.815
  124POPC   O2213984   4.966   2.876   5.858
  124POPC   C2213985   5.181   2.820   5.756
  124POPC   H2R13986   5.214   2.754   5.839
  124POPC   H2S13987   5.268   2.880   5.721
  124POPC    C313988   5.060   3.275   5.820
  124POPC    HX13989   4.993   3.347   5.871
  124POPC    HY13990   5.034   3.279   5.712
  124POPC   O3113991   5.197   3.311   5.845
  124POPC   C3113992   5.281   3.268   5.752
  124POPC   O3213993   5.254   3.251   5.634
  124POPC   C3213994   5.413   3.231   5.819
  124POPC   H2X13995   5.387   3.192   5.920
  124POPC   H2Y13996   5.474   3.324   5.832
  124POPC   C2313997   5.127   2.733   5.641
  124POPC   H3R13998   5.028   2.691   5.669
  124POPC   H3S13999   5.196   2.648   5.627
  124POPC   C2414000   5.117   2.807   5.507
  124POPC   H4R14001   5.221   2.827   5.472
  124POPC   H4S14002   5.067   2.906   5.519
  124POPC   C2514003   5.039   2.723   5.406
  124POPC   H5R14004   4.931   2.739   5.425
  124POPC   H5S14005   5.059   2.616   5.427
  124POPC   C2614006   5.068   2.746   5.256
  124POPC   H6R14007   5.007   2.832   5.219
  124POPC   H6S14008   5.034   2.655   5.202
  124POPC   C2714009   5.214   2.770   5.219
  124POPC   H7R14010   5.283   2.709   5.282
  124POPC   H7S14011   5.237   2.876   5.243
  124POPC   C2814012   5.242   2.743   5.070
  124POPC   H8R14013   5.324   2.812   5.040
  124POPC   H8S14014   5.153   2.772   5.010
  124POPC   C2914015   5.290   2.603   5.041
  124POPC   H9114016   5.371   2.569   5.107
  124POPC  C21014017   5.246   2.518   4.947
  124POPC  H10114018   5.298   2.422   4.934
  124POPC  C21114019   5.137   2.541   4.847
  124POPC  H11R14020   5.070   2.623   4.879
  124POPC  H11S14021   5.074   2.450   4.838
  124POPC  C21214022   5.193   2.575   4.708
  124POPC  H12R14023   5.257   2.493   4.668
  124POPC  H12S14024   5.258   2.666   4.718
  124POPC  C21314025   5.079   2.605   4.612
  124POPC  H13R14026   4.992   2.637   4.674
  124POPC  H13S14027   5.047   2.514   4.557
  124POPC  C21414028   5.107   2.721   4.516
  124POPC  H14R14029   5.163   2.684   4.427
  124POPC  H14S14030   5.169   2.797   4.568
  124POPC  C21514031   4.977   2.789   4.476
  124POPC  H15R14032   4.938   2.841   4.567
  124POPC  H15S14033   4.903   2.711   4.448
  124POPC  C21614034   4.986   2.890   4.362
  124POPC  H16R14035   5.008   2.837   4.267
  124POPC  H16S14036   5.068   2.962   4.380
  124POPC  C21714037   4.852   2.963   4.354
  124POPC  H17R14038   4.846   3.033   4.441
  124POPC  H17S14039   4.771   2.888   4.365
  124POPC  C21814040   4.825   3.040   4.227
  124POPC  H18R14041   4.832   2.972   4.140
  124POPC  H18S14042   4.901   3.121   4.217
  124POPC  H18T14043   4.724   3.085   4.228
  124POPC   C3314044   5.490   3.123   5.740
  124POPC   H3X14045   5.422   3.042   5.709
  124POPC   H3Y14046   5.568   3.078   5.806
  124POPC   C3414047   5.562   3.179   5.617
  124POPC   H4X14048   5.631   3.261   5.647
  124POPC   H4Y14049   5.486   3.223   5.548
  124POPC   C3514050   5.643   3.073   5.542
  124POPC   H5X14051   5.608   2.972   5.571
  124POPC   H5Y14052   5.748   3.085   5.577
  124POPC   C3614053   5.641   3.085   5.390
  124POPC   H6X14054   5.703   3.003   5.348
  124POPC   H6Y14055   5.685   3.181   5.358
  124POPC   C3714056   5.499   3.072   5.331
  124POPC   H7X14057   5.445   3.168   5.346
  124POPC   H7Y14058   5.443   2.993   5.385
  124POPC   C3814059   5.503   3.039   5.182
  124POPC   H8X14060   5.510   2.929   5.170
  124POPC   H8Y14061   5.595   3.082   5.138
  124POPC   C3914062   5.382   3.094   5.105
  124POPC   H9X14063   5.372   3.204   5.119
  124POPC   H9Y14064   5.289   3.048   5.145
  124POPC  C31014065   5.396   3.060   4.956
  124POPC  H10X14066   5.451   2.963   4.954
  124POPC  H10Y14067   5.461   3.134   4.904
  124POPC  C31114068   5.265   3.037   4.880
  124POPC  H11X14069   5.182   3.017   4.951
  124POPC  H11Y14070   5.277   2.945   4.819
  124POPC  C31214071   5.227   3.150   4.784
  124POPC  H12X14072   5.317   3.185   4.729
  124POPC  H12Y14073   5.187   3.236   4.842
  124POPC  C31314074   5.122   3.102   4.682
  124POPC  H13X14075   5.046   3.042   4.736
  124POPC  H13Y14076   5.171   3.035   4.609
  124POPC  C31414077   5.049   3.216   4.609
  124POPC  H14X14078   4.998   3.279   4.685
  124POPC  H14Y14079   4.971   3.172   4.544
  124POPC  C31514080   5.139   3.306   4.523
  124POPC  H15X14081   5.214   3.356   4.588
  124POPC  H15Y14082   5.075   3.386   4.480
  124POPC  C31614083   5.210   3.233   4.408
  124POPC  H16X14084   5.264   3.306   4.343
  124POPC  H16Y14085   5.137   3.179   4.345
  124POPC  H16Z14086   5.284   3.160   4.447
  125POPC     N14087   2.168   2.731   6.210
  125POPC   C1214088   2.222   2.861   6.269
  125POPC  H12A14089   2.188   2.870   6.371
  125POPC  H12B14090   2.176   2.942   6.215
  125POPC   C1314091   2.127   2.757   6.068
  125POPC  H13A14092   2.045   2.828   6.062
  125POPC  H13B14093   2.211   2.794   6.011
  125POPC  H13C14094   2.092   2.665   6.022
  125POPC   C1414095   2.272   2.623   6.207
  125POPC  H14A14096   2.360   2.662   6.157
  125POPC  H14B14097   2.300   2.592   6.306
  125POPC  H14C14098   2.238   2.537   6.152
  125POPC   C1514099   2.048   2.682   6.285
  125POPC  H15A14100   2.012   2.590   6.242
  125POPC  H15B14101   1.967   2.753   6.282
  125POPC  H15C14102   2.071   2.661   6.389
  125POPC   C1114103   2.375   2.884   6.267
  125POPC  H11A14104   2.422   2.818   6.343
  125POPC  H11B14105   2.393   2.989   6.298
  125POPC     P14106   2.565   2.928   6.093
  125POPC   O1314107   2.641   2.838   6.005
  125POPC   O1414108   2.635   2.977   6.214
  125POPC   O1214109   2.433   2.855   6.140
  125POPC   O1114110   2.507   3.049   6.009
  125POPC    C114111   2.395   3.029   5.921
  125POPC    HA14112   2.313   3.096   5.954
  125POPC    HB14113   2.355   2.926   5.921
  125POPC    C214114   2.428   3.065   5.773
  125POPC    HS14115   2.332   3.085   5.720
  125POPC   O2114116   2.504   2.962   5.709
  125POPC   C2114117   2.432   2.874   5.643
  125POPC   O2214118   2.313   2.853   5.657
  125POPC   C2214119   2.522   2.814   5.535
  125POPC   H2R14120   2.619   2.785   5.581
  125POPC   H2S14121   2.541   2.896   5.462
  125POPC    C314122   2.511   3.195   5.762
  125POPC    HX14123   2.605   3.180   5.819
  125POPC    HY14124   2.454   3.277   5.810
  125POPC   O3114125   2.543   3.217   5.622
  125POPC   C3114126   2.527   3.339   5.577
  125POPC   O3214127   2.487   3.435   5.642
  125POPC   C3214128   2.581   3.351   5.435
  125POPC   H2X14129   2.692   3.345   5.446
  125POPC   H2Y14130   2.552   3.451   5.399
  125POPC   C2314131   2.460   2.694   5.460
  125POPC   H3R14132   2.355   2.714   5.432
  125POPC   H3S14133   2.460   2.606   5.528
  125POPC   C2414134   2.540   2.663   5.333
  125POPC   H4R14135   2.648   2.672   5.358
  125POPC   H4S14136   2.520   2.742   5.257
  125POPC   C2514137   2.516   2.522   5.277
  125POPC   H5R14138   2.476   2.456   5.357
  125POPC   H5S14139   2.614   2.482   5.246
  125POPC   C2614140   2.429   2.514   5.151
  125POPC   H6R14141   2.327   2.553   5.172
  125POPC   H6S14142   2.421   2.407   5.122
  125POPC   C2714143   2.491   2.586   5.032
  125POPC   H7R14144   2.598   2.559   5.024
  125POPC   H7S14145   2.488   2.694   5.056
  125POPC   C2814146   2.417   2.558   4.900
  125POPC   H8R14147   2.427   2.648   4.835
  125POPC   H8S14148   2.308   2.546   4.921
  125POPC   C2914149   2.468   2.439   4.824
  125POPC   H9114150   2.404   2.350   4.823
  125POPC  C21014151   2.585   2.439   4.759
  125POPC  H10114152   2.615   2.347   4.706
  125POPC  C21114153   2.681   2.555   4.752
  125POPC  H11R14154   2.782   2.522   4.784
  125POPC  H11S14155   2.653   2.637   4.821
  125POPC  C21214156   2.693   2.616   4.611
  125POPC  H12R14157   2.598   2.668   4.585
  125POPC  H12S14158   2.709   2.535   4.537
  125POPC  C21314159   2.810   2.714   4.602
  125POPC  H13R14160   2.817   2.752   4.498
  125POPC  H13S14161   2.904   2.657   4.623
  125POPC  C21414162   2.806   2.832   4.700
  125POPC  H14R14163   2.907   2.878   4.701
  125POPC  H14S14164   2.786   2.799   4.804
  125POPC  C21514165   2.706   2.942   4.660
  125POPC  H15R14166   2.602   2.909   4.681
  125POPC  H15S14167   2.715   2.955   4.550
  125POPC  C21614168   2.737   3.075   4.730
  125POPC  H16R14169   2.845   3.098   4.716
  125POPC  H16S14170   2.721   3.063   4.840
  125POPC  C21714171   2.658   3.197   4.681
  125POPC  H17R14172   2.698   3.288   4.730
  125POPC  H17S14173   2.553   3.186   4.717
  125POPC  C21814174   2.657   3.217   4.529
  125POPC  H18R14175   2.613   3.130   4.476
  125POPC  H18S14176   2.761   3.232   4.492
  125POPC  H18T14177   2.597   3.307   4.502
  125POPC   C3314178   2.541   3.245   5.329
  125POPC   H3X14179   2.566   3.142   5.365
  125POPC   H3Y14180   2.602   3.263   5.238
  125POPC   C3414181   2.394   3.254   5.291
  125POPC   H4X14182   2.366   3.360   5.270
  125POPC   H4Y14183   2.339   3.216   5.380
  125POPC   C3514184   2.349   3.170   5.173
  125POPC   H5X14185   2.416   3.082   5.178
  125POPC   H5Y14186   2.367   3.220   5.075
  125POPC   C3614187   2.204   3.117   5.184
  125POPC   H6X14188   2.179   3.092   5.290
  125POPC   H6Y14189   2.206   3.022   5.127
  125POPC   C3714190   2.086   3.189   5.117
  125POPC   H7X14191   2.122   3.244   5.027
  125POPC   H7Y14192   2.045   3.263   5.189
  125POPC   C3814193   1.969   3.095   5.074
  125POPC   H8X14194   1.878   3.159   5.077
  125POPC   H8Y14195   1.955   3.013   5.148
  125POPC   C3914196   1.986   3.035   4.931
  125POPC   H9X14197   2.091   2.998   4.933
  125POPC   H9Y14198   1.981   3.122   4.863
  125POPC  C31014199   1.897   2.921   4.874
  125POPC  H10X14200   1.808   2.971   4.829
  125POPC  H10Y14201   1.862   2.858   4.958
  125POPC  C31114202   1.952   2.824   4.762
  125POPC  H11X14203   1.866   2.791   4.701
  125POPC  H11Y14204   1.993   2.733   4.811
  125POPC  C31214205   2.061   2.878   4.667
  125POPC  H12X14206   2.153   2.890   4.728
  125POPC  H12Y14207   2.029   2.978   4.631
  125POPC  C31314208   2.107   2.796   4.543
  125POPC  H13X14209   2.050   2.835   4.456
  125POPC  H13Y14210   2.083   2.688   4.555
  125POPC  C31414211   2.259   2.811   4.516
  125POPC  H14X14212   2.317   2.740   4.579
  125POPC  H14Y14213   2.288   2.914   4.547
  125POPC  C31514214   2.307   2.801   4.369
  125POPC  H15X14215   2.413   2.837   4.366
  125POPC  H15Y14216   2.249   2.872   4.307
  125POPC  C31614217   2.304   2.661   4.306
  125POPC  H16X14218   2.202   2.618   4.311
  125POPC  H16Y14219   2.373   2.593   4.359
  125POPC  H16Z14220   2.335   2.667   4.200
  126POPC     N14221   5.668   4.230   6.296
  126POPC   C1214222   5.739   4.290   6.175
  126POPC  H12A14223   5.836   4.243   6.162
  126POPC  H12B14224   5.756   4.395   6.194
  126POPC   C1314225   5.594   4.106   6.254
  126POPC  H13A14226   5.535   4.062   6.333
  126POPC  H13B14227   5.524   4.133   6.177
  126POPC  H13C14228   5.659   4.031   6.213
  126POPC   C1414229   5.762   4.204   6.409
  126POPC  H14A14230   5.710   4.160   6.493
  126POPC  H14B14231   5.841   4.137   6.379
  126POPC  H14C14232   5.806   4.296   6.442
  126POPC   C1514233   5.564   4.328   6.343
  126POPC  H15A14234   5.499   4.287   6.418
  126POPC  H15B14235   5.504   4.359   6.259
  126POPC  H15C14236   5.609   4.419   6.380
  126POPC   C1114237   5.666   4.282   6.038
  126POPC  H11A14238   5.653   4.176   6.008
  126POPC  H11B14239   5.730   4.326   5.959
  126POPC     P14240   5.524   4.501   6.027
  126POPC   O1314241   5.630   4.549   5.936
  126POPC   O1414242   5.522   4.560   6.163
  126POPC   O1214243   5.539   4.344   6.046
  126POPC   O1114244   5.382   4.517   5.960
  126POPC    C114245   5.286   4.411   5.950
  126POPC    HA14246   5.187   4.452   5.979
  126POPC    HB14247   5.306   4.327   6.020
  126POPC    C214248   5.270   4.351   5.806
  126POPC    HS14249   5.184   4.281   5.812
  126POPC   O2114250   5.389   4.277   5.773
  126POPC   C2114251   5.380   4.202   5.665
  126POPC   O2214252   5.280   4.189   5.596
  126POPC   C2214253   5.511   4.126   5.642
  126POPC   H2R14254   5.489   4.018   5.655
  126POPC   H2S14255   5.583   4.157   5.721
  126POPC    C314256   5.234   4.461   5.701
  126POPC    HX14257   5.152   4.523   5.743
  126POPC    HY14258   5.192   4.412   5.610
  126POPC   O3114259   5.348   4.545   5.674
  126POPC   C3114260   5.391   4.549   5.549
  126POPC   O3214261   5.327   4.522   5.450
  126POPC   C3214262   5.538   4.592   5.550
  126POPC   H2X14263   5.562   4.628   5.653
  126POPC   H2Y14264   5.550   4.674   5.475
  126POPC   C2314265   5.575   4.148   5.503
  126POPC   H3R14266   5.684   4.164   5.518
  126POPC   H3S14267   5.534   4.238   5.454
  126POPC   C2414268   5.559   4.031   5.405
  126POPC   H4R14269   5.452   4.014   5.381
  126POPC   H4S14270   5.595   3.938   5.454
  126POPC   C2514271   5.642   4.055   5.277
  126POPC   H5R14272   5.714   3.972   5.263
  126POPC   H5S14273   5.708   4.144   5.294
  126POPC   C2614274   5.568   4.078   5.146
  126POPC   H6R14275   5.506   3.989   5.120
  126POPC   H6S14276   5.645   4.090   5.066
  126POPC   C2714277   5.482   4.204   5.147
  126POPC   H7R14278   5.492   4.255   5.049
  126POPC   H7S14279   5.522   4.273   5.224
  126POPC   C2814280   5.335   4.172   5.173
  126POPC   H8R14281   5.326   4.097   5.255
  126POPC   H8S14282   5.291   4.122   5.083
  126POPC   C2914283   5.262   4.296   5.213
  126POPC   H9114284   5.237   4.304   5.320
  126POPC  C21014285   5.230   4.397   5.131
  126POPC  H10114286   5.186   4.487   5.176
  126POPC  C21114287   5.259   4.408   4.984
  126POPC  H11R14288   5.369   4.409   4.967
  126POPC  H11S14289   5.220   4.506   4.951
  126POPC  C21214290   5.199   4.304   4.887
  126POPC  H12R14291   5.088   4.306   4.896
  126POPC  H12S14292   5.231   4.200   4.912
  126POPC  C21314293   5.238   4.333   4.742
  126POPC  H13R14294   5.258   4.441   4.731
  126POPC  H13S14295   5.156   4.307   4.672
  126POPC  C21414296   5.362   4.256   4.698
  126POPC  H14R14297   5.440   4.263   4.776
  126POPC  H14S14298   5.400   4.307   4.606
  126POPC  C21514299   5.338   4.109   4.662
  126POPC  H15R14300   5.260   4.101   4.584
  126POPC  H15S14301   5.302   4.055   4.753
  126POPC  C21614302   5.468   4.044   4.613
  126POPC  H16R14303   5.458   3.933   4.617
  126POPC  H16S14304   5.549   4.072   4.683
  126POPC  C21714305   5.507   4.086   4.471
  126POPC  H17R14306   5.479   4.192   4.453
  126POPC  H17S14307   5.447   4.026   4.399
  126POPC  C21814308   5.656   4.071   4.442
  126POPC  H18R14309   5.686   3.965   4.453
  126POPC  H18S14310   5.716   4.131   4.514
  126POPC  H18T14311   5.681   4.105   4.340
  126POPC   C3314312   5.633   4.476   5.516
  126POPC   H3X14313   5.611   4.445   5.412
  126POPC   H3Y14314   5.607   4.392   5.585
  126POPC   C3414315   5.783   4.504   5.537
  126POPC   H4X14316   5.819   4.440   5.620
  126POPC   H4Y14317   5.796   4.609   5.571
  126POPC   C3514318   5.875   4.479   5.415
  126POPC   H5X14319   5.981   4.490   5.446
  126POPC   H5Y14320   5.854   4.558   5.339
  126POPC   C3614321   5.855   4.343   5.346
  126POPC   H6X14322   5.747   4.333   5.321
  126POPC   H6Y14323   5.881   4.265   5.420
  126POPC   C3714324   5.932   4.318   5.215
  126POPC   H7X14325   5.939   4.208   5.204
  126POPC   H7Y14326   6.036   4.357   5.222
  126POPC   C3814327   5.861   4.372   5.089
  126POPC   H8X14328   5.890   4.479   5.077
  126POPC   H8Y14329   5.752   4.367   5.105
  126POPC   C3914330   5.892   4.296   4.958
  126POPC   H9X14331   5.912   4.190   4.985
  126POPC   H9Y14332   5.984   4.336   4.911
  126POPC  C31014333   5.776   4.293   4.855
  126POPC  H10X14334   5.680   4.274   4.907
  126POPC  H10Y14335   5.794   4.207   4.787
  126POPC  C31114336   5.763   4.417   4.765
  126POPC  H11X14337   5.860   4.436   4.715
  126POPC  H11Y14338   5.740   4.506   4.827
  126POPC  C31214339   5.653   4.404   4.657
  126POPC  H12X14340   5.562   4.454   4.696
  126POPC  H12Y14341   5.628   4.297   4.644
  126POPC  C31314342   5.687   4.461   4.518
  126POPC  H13X14343   5.737   4.381   4.459
  126POPC  H13Y14344   5.758   4.545   4.527
  126POPC  C31414345   5.561   4.509   4.442
  126POPC  H14X14346   5.548   4.618   4.459
  126POPC  H14Y14347   5.472   4.458   4.484
  126POPC  C31514348   5.560   4.484   4.291
  126POPC  H15X14349   5.585   4.377   4.273
  126POPC  H15Y14350   5.638   4.546   4.242
  126POPC  C31614351   5.424   4.516   4.227
  126POPC  H16X14352   5.400   4.624   4.238
  126POPC  H16Y14353   5.343   4.457   4.275
  126POPC  H16Z14354   5.424   4.493   4.119
  127POPC     N14355   5.895   3.755   6.375
  127POPC   C1214356   5.864   3.606   6.362
  127POPC  H12A14357   5.770   3.595   6.311
  127POPC  H12B14358   5.849   3.563   6.460
  127POPC   C1314359   5.926   3.810   6.239
  127POPC  H13A14360   5.960   3.913   6.240
  127POPC  H13B14361   5.999   3.747   6.191
  127POPC  H13C14362   5.839   3.800   6.175
  127POPC   C1414363   5.772   3.822   6.430
  127POPC  H14A14364   5.785   3.928   6.443
  127POPC  H14B14365   5.688   3.805   6.364
  127POPC  H14C14366   5.745   3.779   6.526
  127POPC   C1514367   6.013   3.776   6.465
  127POPC  H15A14368   6.037   3.881   6.474
  127POPC  H15B14369   6.099   3.725   6.425
  127POPC  H15C14370   5.993   3.737   6.564
  127POPC   C1114371   5.964   3.521   6.282
  127POPC  H11A14372   5.949   3.413   6.305
  127POPC  H11B14373   6.068   3.544   6.311
  127POPC     P14374   5.814   3.496   6.070
  127POPC   O1314375   5.775   3.366   6.130
  127POPC   O1414376   5.841   3.507   5.926
  127POPC   O1214377   5.947   3.546   6.143
  127POPC   O1114378   5.708   3.606   6.115
  127POPC    C114379   5.689   3.724   6.036
  127POPC    HA14380   5.784   3.755   5.987
  127POPC    HB14381   5.659   3.807   6.104
  127POPC    C214382   5.578   3.717   5.927
  127POPC    HS14383   5.482   3.701   5.980
  127POPC   O2114384   5.603   3.608   5.837
  127POPC   C2114385   5.509   3.594   5.744
  127POPC   O2214386   5.397   3.640   5.753
  127POPC   C2214387   5.563   3.519   5.624
  127POPC   H2R14388   5.497   3.430   5.609
  127POPC   H2S14389   5.666   3.485   5.646
  127POPC    C314390   5.571   3.852   5.848
  127POPC    HX14391   5.590   3.938   5.916
  127POPC    HY14392   5.467   3.864   5.811
  127POPC   O3114393   5.661   3.850   5.734
  127POPC   C3114394   5.787   3.883   5.755
  127POPC   O3214395   5.828   3.950   5.849
  127POPC   C3214396   5.877   3.812   5.653
  127POPC   H2X14397   5.814   3.753   5.583
  127POPC   H2Y14398   5.936   3.739   5.713
  127POPC   C2314399   5.561   3.602   5.493
  127POPC   H3R14400   5.626   3.549   5.420
  127POPC   H3S14401   5.604   3.703   5.509
  127POPC   C2414402   5.421   3.613   5.431
  127POPC   H4R14403   5.363   3.690   5.485
  127POPC   H4S14404   5.366   3.517   5.442
  127POPC   C2514405   5.428   3.649   5.282
  127POPC   H5R14406   5.521   3.706   5.264
  127POPC   H5S14407   5.344   3.716   5.253
  127POPC   C2614408   5.424   3.523   5.195
  127POPC   H6R14409   5.322   3.479   5.193
  127POPC   H6S14410   5.490   3.450   5.247
  127POPC   C2714411   5.474   3.548   5.051
  127POPC   H7R14412   5.562   3.615   5.055
  127POPC   H7S14413   5.394   3.601   4.994
  127POPC   C2814414   5.513   3.419   4.976
  127POPC   H8R14415   5.543   3.447   4.872
  127POPC   H8S14416   5.422   3.356   4.966
  127POPC   C2914417   5.622   3.343   5.047
  127POPC   H9114418   5.602   3.321   5.153
  127POPC  C21014419   5.736   3.294   4.996
  127POPC  H10114420   5.804   3.238   5.062
  127POPC  C21114421   5.780   3.303   4.853
  127POPC  H11R14422   5.891   3.311   4.850
  127POPC  H11S14423   5.741   3.394   4.802
  127POPC  C21214424   5.735   3.179   4.774
  127POPC  H12R14425   5.630   3.193   4.740
  127POPC  H12S14426   5.739   3.088   4.836
  127POPC  C21314427   5.827   3.157   4.653
  127POPC  H13R14428   5.921   3.113   4.693
  127POPC  H13S14429   5.851   3.256   4.608
  127POPC  C21414430   5.774   3.065   4.544
  127POPC  H14R14431   5.674   3.101   4.510
  127POPC  H14S14432   5.763   2.963   4.586
  127POPC  C21514433   5.867   3.059   4.422
  127POPC  H15R14434   5.840   2.971   4.360
  127POPC  H15S14435   5.971   3.041   4.458
  127POPC  C21614436   5.860   3.184   4.334
  127POPC  H16R14437   5.810   3.267   4.389
  127POPC  H16S14438   5.798   3.161   4.246
  127POPC  C21714439   5.998   3.234   4.288
  127POPC  H17R14440   6.061   3.148   4.259
  127POPC  H17S14441   6.049   3.284   4.374
  127POPC  C21814442   5.990   3.332   4.172
  127POPC  H18R14443   5.924   3.418   4.198
  127POPC  H18S14444   5.947   3.282   4.082
  127POPC  H18T14445   6.090   3.371   4.145
  127POPC   C3314446   5.974   3.904   5.576
  127POPC   H3X14447   6.072   3.853   5.563
  127POPC   H3Y14448   5.992   3.996   5.636
  127POPC   C3414449   5.922   3.947   5.438
  127POPC   H4X14450   5.957   4.051   5.421
  127POPC   H4Y14451   5.811   3.949   5.442
  127POPC   C3514452   5.973   3.865   5.317
  127POPC   H5X14453   6.077   3.832   5.341
  127POPC   H5Y14454   5.981   3.932   5.230
  127POPC   C3614455   5.892   3.739   5.278
  127POPC   H6X14456   5.839   3.699   5.367
  127POPC   H6Y14457   5.965   3.662   5.247
  127POPC   C3714458   5.791   3.749   5.160
  127POPC   H7X14459   5.695   3.792   5.195
  127POPC   H7Y14460   5.766   3.645   5.129
  127POPC   C3814461   5.836   3.826   5.034
  127POPC   H8X14462   5.929   3.778   4.996
  127POPC   H8Y14463   5.860   3.932   5.059
  127POPC   C3914464   5.728   3.827   4.924
  127POPC   H9X14465   5.645   3.895   4.954
  127POPC   H9Y14466   5.685   3.725   4.915
  127POPC  C31014467   5.778   3.869   4.785
  127POPC  H10X14468   5.826   3.969   4.789
  127POPC  H10Y14469   5.690   3.877   4.718
  127POPC  C31114470   5.877   3.767   4.725
  127POPC  H11X14471   5.842   3.664   4.749
  127POPC  H11Y14472   5.976   3.781   4.774
  127POPC  C31214473   5.893   3.778   4.573
  127POPC  H12X14474   5.987   3.726   4.543
  127POPC  H12Y14475   5.903   3.885   4.545
  127POPC  C31314476   5.777   3.713   4.496
  127POPC  H13X14477   5.682   3.760   4.529
  127POPC  H13Y14478   5.771   3.605   4.520
  127POPC  C31414479   5.789   3.731   4.343
  127POPC  H14X14480   5.868   3.663   4.304
  127POPC  H14Y14481   5.820   3.835   4.321
  127POPC  C31514482   5.656   3.704   4.272
  127POPC  H15X14483   5.579   3.773   4.313
  127POPC  H15Y14484   5.623   3.600   4.296
  127POPC  C31614485   5.662   3.721   4.120
  127POPC  H16X14486   5.561   3.710   4.075
  127POPC  H16Y14487   5.728   3.644   4.076
  127POPC  H16Z14488   5.701   3.822   4.094
  128POPC     N14489   5.000   5.731   6.280
  128POPC   C1214490   5.052   5.763   6.141
  128POPC  H12A14491   4.964   5.786   6.081
  128POPC  H12B14492   5.098   5.675   6.099
  128POPC   C1314493   4.881   5.819   6.306
  128POPC  H13A14494   4.908   5.923   6.296
  128POPC  H13B14495   4.804   5.799   6.233
  128POPC  H13C14496   4.841   5.804   6.405
  128POPC   C1414497   4.954   5.589   6.290
  128POPC  H14A14498   4.915   5.569   6.389
  128POPC  H14B14499   4.872   5.571   6.222
  128POPC  H14C14500   5.034   5.519   6.271
  128POPC   C1514501   5.106   5.762   6.381
  128POPC  H15A14502   5.196   5.704   6.362
  128POPC  H15B14503   5.073   5.744   6.482
  128POPC  H15C14504   5.132   5.866   6.372
  128POPC   C1114505   5.150   5.882   6.121
  128POPC  H11A14506   5.163   5.903   6.013
  128POPC  H11B14507   5.250   5.850   6.157
  128POPC     P14508   5.008   6.105   6.129
  128POPC   O1314509   5.086   6.215   6.071
  128POPC   O1414510   4.912   6.138   6.238
  128POPC   O1214511   5.110   6.000   6.192
  128POPC   O1114512   4.934   6.023   6.015
  128POPC    C114513   4.799   6.053   5.976
  128POPC    HA14514   4.785   6.162   5.960
  128POPC    HB14515   4.729   6.021   6.056
  128POPC    C214516   4.752   5.979   5.844
  128POPC    HS14517   4.663   5.918   5.868
  128POPC   O2114518   4.856   5.895   5.793
  128POPC   C2114519   4.884   5.790   5.865
  128POPC   O2214520   4.823   5.749   5.962
  128POPC   C2214521   5.013   5.730   5.813
  128POPC   H2R14522   5.039   5.641   5.874
  128POPC   H2S14523   5.093   5.807   5.824
  128POPC    C314524   4.711   6.074   5.728
  128POPC    HX14525   4.787   6.154   5.721
  128POPC    HY14526   4.613   6.119   5.754
  128POPC   O3114527   4.707   6.001   5.602
  128POPC   C3114528   4.639   6.058   5.504
  128POPC   O3214529   4.569   6.157   5.514
  128POPC   C3214530   4.667   5.982   5.373
  128POPC   H2X14531   4.674   5.873   5.396
  128POPC   H2Y14532   4.766   6.016   5.336
  128POPC   C2314533   4.999   5.692   5.665
  128POPC   H3R14534   4.955   5.777   5.608
  128POPC   H3S14535   4.931   5.605   5.658
  128POPC   C2414536   5.133   5.658   5.600
  128POPC   H4R14537   5.180   5.581   5.665
  128POPC   H4S14538   5.199   5.747   5.599
  128POPC   C2514539   5.117   5.602   5.458
  128POPC   H5R14540   5.053   5.512   5.460
  128POPC   H5S14541   5.218   5.571   5.424
  128POPC   C2614542   5.064   5.701   5.354
  128POPC   H6R14543   5.038   5.799   5.400
  128POPC   H6S14544   4.971   5.659   5.309
  128POPC   C2714545   5.165   5.723   5.240
  128POPC   H7R14546   5.202   5.624   5.206
  128POPC   H7S14547   5.251   5.780   5.281
  128POPC   C2814548   5.103   5.798   5.121
  128POPC   H8R14549   5.065   5.896   5.156
  128POPC   H8S14550   5.016   5.739   5.083
  128POPC   C2914551   5.206   5.816   5.013
  128POPC   H9114552   5.309   5.789   5.041
  128POPC  C21014553   5.182   5.863   4.890
  128POPC  H10114554   5.268   5.873   4.821
  128POPC  C21114555   5.052   5.908   4.830
  128POPC  H11R14556   4.968   5.889   4.901
  128POPC  H11S14557   5.032   5.848   4.739
  128POPC  C21214558   5.050   6.057   4.791
  128POPC  H12R14559   5.146   6.084   4.741
  128POPC  H12S14560   5.043   6.118   4.884
  128POPC  C21314561   4.937   6.096   4.694
  128POPC  H13R14562   4.955   6.044   4.598
  128POPC  H13S14563   4.941   6.205   4.672
  128POPC  C21414564   4.796   6.060   4.745
  128POPC  H14R14565   4.763   6.127   4.827
  128POPC  H14S14566   4.805   5.958   4.788
  128POPC  C21514567   4.690   6.046   4.635
  128POPC  H15R14568   4.612   5.972   4.665
  128POPC  H15S14569   4.742   6.008   4.544
  128POPC  C21614570   4.622   6.173   4.588
  128POPC  H16R14571   4.706   6.244   4.570
  128POPC  H16S14572   4.553   6.212   4.666
  128POPC  C21714573   4.552   6.156   4.454
  128POPC  H17R14574   4.458   6.215   4.452
  128POPC  H17S14575   4.526   6.049   4.439
  128POPC  C21814576   4.641   6.206   4.341
  128POPC  H18R14577   4.659   6.314   4.352
  128POPC  H18S14578   4.596   6.186   4.241
  128POPC  H18T14579   4.739   6.154   4.346
  128POPC   C3314580   4.558   6.007   5.267
  128POPC   H3X14581   4.530   6.115   5.269
  128POPC   H3Y14582   4.468   5.948   5.294
  128POPC   C3414583   4.595   5.977   5.120
  128POPC   H4X14584   4.699   6.010   5.099
  128POPC   H4Y14585   4.528   6.038   5.055
  128POPC   C3514586   4.575   5.831   5.081
  128POPC   H5X14587   4.477   5.792   5.115
  128POPC   H5Y14588   4.655   5.771   5.131
  128POPC   C3614589   4.589   5.808   4.931
  128POPC   H6X14590   4.689   5.849   4.904
  128POPC   H6Y14591   4.513   5.865   4.873
  128POPC   C3714592   4.585   5.660   4.892
  128POPC   H7X14593   4.480   5.625   4.894
  128POPC   H7Y14594   4.641   5.603   4.970
  128POPC   C3814595   4.647   5.631   4.755
  128POPC   H8X14596   4.596   5.695   4.680
  128POPC   H8Y14597   4.627   5.525   4.727
  128POPC   C3914598   4.800   5.652   4.749
  128POPC   H9X14599   4.849   5.572   4.809
  128POPC   H9Y14600   4.830   5.749   4.795
  128POPC  C31014601   4.852   5.648   4.605
  128POPC  H10X14602   4.796   5.566   4.557
  128POPC  H10Y14603   4.961   5.627   4.602
  128POPC  C31114604   4.819   5.772   4.524
  128POPC  H11X14605   4.901   5.846   4.540
  128POPC  H11Y14606   4.725   5.812   4.567
  128POPC  C31214607   4.791   5.753   4.375
  128POPC  H12X14608   4.694   5.701   4.360
  128POPC  H12Y14609   4.869   5.688   4.330
  128POPC  C31314610   4.786   5.892   4.308
  128POPC  H13X14611   4.862   5.954   4.361
  128POPC  H13Y14612   4.687   5.938   4.329
  128POPC  C31414613   4.815   5.900   4.158
  128POPC  H14X14614   4.726   5.867   4.101
  128POPC  H14Y14615   4.896   5.828   4.133
  128POPC  C31514616   4.859   6.040   4.108
  128POPC  H15X14617   4.769   6.105   4.100
  128POPC  H15Y14618   4.897   6.028   4.004
  128POPC  C31614619   4.966   6.115   4.190
  128POPC  H16X14620   4.921   6.195   4.252
  128POPC  H16Y14621   5.041   6.163   4.122
  128POPC  H16Z14622   5.021   6.047   4.258
  129POPC     N14623   5.712   2.142   6.400
  129POPC   C1214624   5.726   2.293   6.401
  129POPC  H12A14625   5.805   2.319   6.469
  129POPC  H12B14626   5.634   2.334   6.440
  129POPC   C1314627   5.590   2.099   6.325
  129POPC  H13A14628   5.602   2.125   6.220
  129POPC  H13B14629   5.576   1.992   6.328
  129POPC  H13C14630   5.500   2.150   6.358
  129POPC   C1414631   5.828   2.077   6.329
  129POPC  H14A14632   5.829   2.108   6.226
  129POPC  H14B14633   5.924   2.102   6.373
  129POPC  H14C14634   5.819   1.970   6.328
  129POPC   C1514635   5.705   2.087   6.539
  129POPC  H15A14636   5.619   2.125   6.592
  129POPC  H15B14637   5.795   2.107   6.595
  129POPC  H15C14638   5.694   1.979   6.534
  129POPC   C1114639   5.753   2.366   6.267
  129POPC  H11A14640   5.850   2.332   6.225
  129POPC  H11B14641   5.765   2.475   6.289
  129POPC     P14642   5.664   2.281   6.036
  129POPC   O1314643   5.529   2.257   5.982
  129POPC   O1414644   5.754   2.166   6.057
  129POPC   O1214645   5.643   2.351   6.178
  129POPC   O1114646   5.738   2.395   5.958
  129POPC    C114647   5.678   2.523   5.947
  129POPC    HA14648   5.679   2.573   6.046
  129POPC    HB14649   5.573   2.516   5.911
  129POPC    C214650   5.757   2.612   5.847
  129POPC    HS14651   5.716   2.715   5.854
  129POPC   O2114652   5.742   2.561   5.714
  129POPC   C2114653   5.640   2.604   5.643
  129POPC   O2214654   5.550   2.676   5.684
  129POPC   C2214655   5.652   2.546   5.501
  129POPC   H2R14656   5.565   2.479   5.484
  129POPC   H2S14657   5.743   2.482   5.499
  129POPC    C314658   5.910   2.621   5.883
  129POPC    HX14659   5.917   2.655   5.989
  129POPC    HY14660   5.958   2.700   5.821
  129POPC   O3114661   5.979   2.495   5.871
  129POPC   C3114662   6.004   2.465   5.743
  129POPC   O3214663   6.008   2.544   5.651
  129POPC   C3214664   6.034   2.317   5.731
  129POPC   H2X14665   5.943   2.259   5.758
  129POPC   H2Y14666   6.115   2.292   5.803
  129POPC   C2314667   5.665   2.650   5.386
  129POPC   H3R14668   5.739   2.727   5.415
  129POPC   H3S14669   5.567   2.701   5.370
  129POPC   C2414670   5.713   2.584   5.256
  129POPC   H4R14671   5.641   2.505   5.225
  129POPC   H4S14672   5.809   2.532   5.279
  129POPC   C2514673   5.739   2.679   5.137
  129POPC   H5R14674   5.834   2.649   5.089
  129POPC   H5S14675   5.751   2.783   5.174
  129POPC   C2614676   5.629   2.674   5.029
  129POPC   H6R14677   5.535   2.711   5.075
  129POPC   H6S14678   5.613   2.569   4.998
  129POPC   C2714679   5.658   2.760   4.904
  129POPC   H7R14680   5.755   2.729   4.859
  129POPC   H7S14681   5.671   2.864   4.940
  129POPC   C2814682   5.547   2.752   4.796
  129POPC   H8R14683   5.451   2.736   4.849
  129POPC   H8S14684   5.562   2.664   4.731
  129POPC   C2914685   5.535   2.880   4.717
  129POPC   H9114686   5.570   2.968   4.772
  129POPC  C21014687   5.489   2.903   4.592
  129POPC  H10114688   5.488   3.007   4.557
  129POPC  C21114689   5.434   2.807   4.490
  129POPC  H11R14690   5.335   2.844   4.458
  129POPC  H11S14691   5.421   2.704   4.531
  129POPC  C21214692   5.520   2.801   4.362
  129POPC  H12R14693   5.538   2.904   4.324
  129POPC  H12S14694   5.464   2.746   4.284
  129POPC  C21314695   5.654   2.731   4.385
  129POPC  H13R14696   5.636   2.626   4.417
  129POPC  H13S14697   5.707   2.782   4.468
  129POPC  C21414698   5.745   2.733   4.262
  129POPC  H14R14699   5.849   2.717   4.297
  129POPC  H14S14700   5.741   2.833   4.213
  129POPC  C21514701   5.713   2.625   4.158
  129POPC  H15R14702   5.616   2.646   4.107
  129POPC  H15S14703   5.702   2.527   4.210
  129POPC  C21614704   5.826   2.612   4.055
  129POPC  H16R14705   5.923   2.619   4.109
  129POPC  H16S14706   5.821   2.696   3.984
  129POPC  C21714707   5.825   2.479   3.980
  129POPC  H17R14708   5.730   2.468   3.924
  129POPC  H17S14709   5.831   2.396   4.053
  129POPC  C21814710   5.943   2.468   3.883
  129POPC  H18R14711   5.946   2.367   3.835
  129POPC  H18S14712   6.039   2.483   3.937
  129POPC  H18T14713   5.936   2.545   3.803
  129POPC   C3314714   6.080   2.284   5.589
  129POPC   H3X14715   6.134   2.186   5.592
  129POPC   H3Y14716   6.151   2.361   5.552
  129POPC   C3414717   5.967   2.271   5.485
  129POPC   H4X14718   5.919   2.370   5.468
  129POPC   H4Y14719   5.890   2.201   5.524
  129POPC   C3514720   6.024   2.218   5.354
  129POPC   H5X14721   6.100   2.142   5.383
  129POPC   H5Y14722   6.077   2.298   5.298
  129POPC   C3614723   5.924   2.145   5.263
  129POPC   H6X14724   5.861   2.077   5.324
  129POPC   H6Y14725   5.982   2.082   5.192
  129POPC   C3714726   5.836   2.238   5.179
  129POPC   H7X14727   5.900   2.309   5.124
  129POPC   H7Y14728   5.769   2.296   5.246
  129POPC   C3814729   5.752   2.157   5.079
  129POPC   H8X14730   5.684   2.090   5.137
  129POPC   H8Y14731   5.819   2.092   5.019
  129POPC   C3914732   5.668   2.244   4.985
  129POPC   H9X14733   5.609   2.317   5.044
  129POPC   H9Y14734   5.597   2.177   4.931
  129POPC  C31014735   5.751   2.319   4.881
  129POPC  H10X14736   5.830   2.251   4.841
  129POPC  H10Y14737   5.802   2.405   4.930
  129POPC  C31114738   5.666   2.371   4.764
  129POPC  H11X14739   5.579   2.427   4.807
  129POPC  H11Y14740   5.625   2.286   4.706
  129POPC  C31214741   5.743   2.466   4.671
  129POPC  H12X14742   5.791   2.544   4.734
  129POPC  H12Y14743   5.672   2.516   4.603
  129POPC  C31314744   5.852   2.398   4.586
  129POPC  H13X14745   5.893   2.308   4.639
  129POPC  H13Y14746   5.935   2.470   4.573
  129POPC  C31414747   5.800   2.358   4.447
  129POPC  H14X14748   5.766   2.450   4.396
  129POPC  H14Y14749   5.713   2.291   4.459
  129POPC  C31514750   5.905   2.289   4.359
  129POPC  H15X14751   5.859   2.269   4.259
  129POPC  H15Y14752   5.929   2.190   4.405
  129POPC  C31614753   6.035   2.365   4.337
  129POPC  H16X14754   6.099   2.311   4.264
  129POPC  H16Y14755   6.092   2.373   4.432
  129POPC  H16Z14756   6.015   2.466   4.297
  130POPC     N14757   0.984   3.937   6.238
  130POPC   C1214758   1.024   3.873   6.107
  130POPC  H12A14759   1.079   3.946   6.049
  130POPC  H12B14760   0.935   3.847   6.051
  130POPC   C1314761   1.106   4.001   6.298
  130POPC  H13A14762   1.090   4.029   6.401
  130POPC  H13B14763   1.190   3.933   6.290
  130POPC  H13C14764   1.131   4.091   6.245
  130POPC   C1414765   0.884   4.046   6.216
  130POPC  H14A14766   0.855   4.091   6.310
  130POPC  H14B14767   0.928   4.127   6.160
  130POPC  H14C14768   0.795   4.013   6.165
  130POPC   C1514769   0.931   3.833   6.332
  130POPC  H15A14770   0.843   3.786   6.292
  130POPC  H15B14771   0.906   3.877   6.428
  130POPC  H15C14772   1.007   3.758   6.347
  130POPC   C1114773   1.113   3.746   6.116
  130POPC  H11A14774   1.131   3.711   6.012
  130POPC  H11B14775   1.057   3.665   6.168
  130POPC     P14776   1.345   3.661   6.193
  130POPC   O1314777   1.285   3.547   6.267
  130POPC   O1414778   1.471   3.718   6.245
  130POPC   O1214779   1.236   3.775   6.184
  130POPC   O1114780   1.362   3.619   6.042
  130POPC    C114781   1.400   3.715   5.942
  130POPC    HA14782   1.510   3.706   5.925
  130POPC    HB14783   1.382   3.820   5.971
  130POPC    C214784   1.330   3.688   5.806
  130POPC    HS14785   1.403   3.714   5.726
  130POPC   O2114786   1.208   3.763   5.793
  130POPC   C2114787   1.215   3.874   5.723
  130POPC   O2214788   1.313   3.942   5.703
  130POPC   C2214789   1.078   3.902   5.663
  130POPC   H2R14790   1.034   3.986   5.719
  130POPC   H2S14791   1.013   3.812   5.672
  130POPC    C314792   1.290   3.540   5.786
  130POPC    HX14793   1.193   3.521   5.836
  130POPC    HY14794   1.363   3.476   5.839
  130POPC   O3114795   1.290   3.504   5.646
  130POPC   C3114796   1.174   3.508   5.583
  130POPC   O3214797   1.068   3.545   5.631
  130POPC   C3214798   1.193   3.463   5.438
  130POPC   H2X14799   1.291   3.413   5.427
  130POPC   H2Y14800   1.191   3.553   5.373
  130POPC   C2314801   1.095   3.940   5.514
  130POPC   H3R14802   1.166   4.026   5.507
  130POPC   H3S14803   0.996   3.973   5.476
  130POPC   C2414804   1.146   3.827   5.423
  130POPC   H4R14805   1.076   3.741   5.433
  130POPC   H4S14806   1.247   3.794   5.456
  130POPC   C2514807   1.152   3.871   5.276
  130POPC   H5R14808   1.218   3.959   5.265
  130POPC   H5S14809   1.049   3.901   5.247
  130POPC   C2614810   1.191   3.761   5.177
  130POPC   H6R14811   1.158   3.791   5.076
  130POPC   H6S14812   1.136   3.668   5.203
  130POPC   C2714813   1.342   3.734   5.170
  130POPC   H7R14814   1.382   3.710   5.271
  130POPC   H7S14815   1.391   3.828   5.136
  130POPC   C2814816   1.375   3.620   5.071
  130POPC   H8R14817   1.314   3.636   4.980
  130POPC   H8S14818   1.344   3.524   5.117
  130POPC   C2914819   1.520   3.616   5.035
  130POPC   H9114820   1.587   3.667   5.105
  130POPC  C21014821   1.573   3.555   4.927
  130POPC  H10114822   1.682   3.562   4.911
  130POPC  C21114823   1.500   3.479   4.819
  130POPC  H11R14824   1.391   3.501   4.820
  130POPC  H11S14825   1.512   3.370   4.836
  130POPC  C21214826   1.557   3.511   4.679
  130POPC  H12R14827   1.668   3.513   4.682
  130POPC  H12S14828   1.522   3.613   4.650
  130POPC  C21314829   1.515   3.410   4.571
  130POPC  H13R14830   1.563   3.312   4.592
  130POPC  H13S14831   1.556   3.446   4.474
  130POPC  C21414832   1.363   3.390   4.558
  130POPC  H14R14833   1.310   3.466   4.618
  130POPC  H14S14834   1.338   3.291   4.601
  130POPC  C21514835   1.311   3.397   4.413
  130POPC  H15R14836   1.237   3.316   4.399
  130POPC  H15S14837   1.394   3.379   4.342
  130POPC  C21614838   1.241   3.530   4.378
  130POPC  H16R14839   1.153   3.541   4.445
  130POPC  H16S14840   1.203   3.524   4.274
  130POPC  C21714841   1.328   3.656   4.391
  130POPC  H17R14842   1.370   3.661   4.494
  130POPC  H17S14843   1.263   3.745   4.379
  130POPC  C21814844   1.442   3.666   4.289
  130POPC  H18R14845   1.511   3.580   4.298
  130POPC  H18S14846   1.500   3.759   4.304
  130POPC  H18T14847   1.401   3.667   4.186
  130POPC   C3314848   1.087   3.361   5.395
  130POPC   H3X14849   0.986   3.408   5.403
  130POPC   H3Y14850   1.091   3.276   5.466
  130POPC   C3414851   1.106   3.304   5.254
  130POPC   H4X14852   1.047   3.210   5.247
  130POPC   H4Y14853   1.212   3.277   5.237
  130POPC   C3514854   1.056   3.399   5.145
  130POPC   H5X14855   1.136   3.474   5.125
  130POPC   H5Y14856   0.967   3.454   5.181
  130POPC   C3614857   1.020   3.325   5.016
  130POPC   H6X14858   0.936   3.255   5.038
  130POPC   H6Y14859   1.107   3.263   4.984
  130POPC   C3714860   0.980   3.418   4.901
  130POPC   H7X14861   0.892   3.479   4.930
  130POPC   H7Y14862   0.951   3.355   4.814
  130POPC   C3814863   1.095   3.509   4.860
  130POPC   H8X14864   1.189   3.449   4.863
  130POPC   H8Y14865   1.105   3.591   4.934
  130POPC   C3914866   1.081   3.568   4.719
  130POPC   H9X14867   1.075   3.485   4.645
  130POPC   H9Y14868   1.173   3.626   4.698
  130POPC  C31014869   0.959   3.659   4.702
  130POPC  H10X14870   0.950   3.725   4.791
  130POPC  H10Y14871   0.867   3.596   4.699
  130POPC  C31114872   0.968   3.746   4.576
  130POPC  H11X14873   0.869   3.793   4.559
  130POPC  H11Y14874   0.989   3.682   4.487
  130POPC  C31214875   1.074   3.856   4.589
  130POPC  H12X14876   1.176   3.811   4.591
  130POPC  H12Y14877   1.060   3.907   4.687
  130POPC  C31314878   1.066   3.962   4.479
  130POPC  H13X14879   0.960   3.991   4.466
  130POPC  H13Y14880   1.100   3.919   4.382
  130POPC  C31414881   1.147   4.088   4.514
  130POPC  H14X14882   1.124   4.117   4.619
  130POPC  H14Y14883   1.117   4.172   4.448
  130POPC  C31514884   1.299   4.068   4.501
  130POPC  H15X14885   1.328   3.970   4.545
  130POPC  H15Y14886   1.351   4.146   4.559
  130POPC  C31614887   1.346   4.076   4.356
  130POPC  H16X14888   1.454   4.053   4.346
  130POPC  H16Y14889   1.329   4.179   4.317
  130POPC  H16Z14890   1.289   4.004   4.292
  131POPC     N14891   1.892   5.918   6.163
  131POPC   C1214892   1.922   5.847   6.032
  131POPC  H12A14893   1.979   5.913   5.968
  131POPC  H12B14894   1.830   5.824   5.980
  131POPC   C1314895   2.019   5.954   6.234
  131POPC  H13A14896   2.079   5.865   6.247
  131POPC  H13B14897   2.082   6.021   6.178
  131POPC  H13C14898   2.001   5.994   6.333
  131POPC   C1414899   1.814   6.044   6.138
  131POPC  H14A14900   1.787   6.093   6.230
  131POPC  H14B14901   1.870   6.113   6.077
  131POPC  H14C14902   1.722   6.022   6.086
  131POPC   C1514903   1.816   5.825   6.254
  131POPC  H15A14904   1.877   5.739   6.276
  131POPC  H15B14905   1.725   5.788   6.208
  131POPC  H15C14906   1.791   5.870   6.348
  131POPC   C1114907   2.006   5.718   6.039
  131POPC  H11A14908   2.005   5.667   5.940
  131POPC  H11B14909   1.962   5.646   6.112
  131POPC     P14910   2.228   5.670   6.168
  131POPC   O1314911   2.191   5.528   6.152
  131POPC   O1414912   2.207   5.727   6.303
  131POPC   O1214913   2.140   5.755   6.069
  131POPC   O1114914   2.375   5.699   6.117
  131POPC    C114915   2.427   5.833   6.117
  131POPC    HA14916   2.524   5.832   6.170
  131POPC    HB14917   2.362   5.905   6.171
  131POPC    C214918   2.451   5.889   5.973
  131POPC    HS14919   2.497   5.989   5.985
  131POPC   O2114920   2.328   5.892   5.899
  131POPC   C2114921   2.275   6.010   5.874
  131POPC   O2214922   2.318   6.117   5.914
  131POPC   C2214923   2.151   5.996   5.784
  131POPC   H2R14924   2.159   6.072   5.703
  131POPC   H2S14925   2.063   6.022   5.847
  131POPC    C314926   2.554   5.804   5.894
  131POPC    HX14927   2.511   5.703   5.875
  131POPC    HY14928   2.644   5.790   5.958
  131POPC   O3114929   2.593   5.875   5.773
  131POPC   C3114930   2.518   5.847   5.666
  131POPC   O3214931   2.437   5.757   5.657
  131POPC   C3214932   2.545   5.950   5.556
  131POPC   H2X14933   2.611   5.904   5.480
  131POPC   H2Y14934   2.596   6.038   5.600
  131POPC   C2314935   2.129   5.855   5.720
  131POPC   H3R14936   2.141   5.777   5.798
  131POPC   H3S14937   2.207   5.836   5.644
  131POPC   C2414938   1.990   5.836   5.656
  131POPC   H4R14939   1.912   5.870   5.727
  131POPC   H4S14940   1.973   5.727   5.638
  131POPC   C2514941   1.971   5.908   5.522
  131POPC   H5R14942   2.008   6.013   5.530
  131POPC   H5S14943   1.862   5.912   5.500
  131POPC   C2614944   2.039   5.839   5.402
  131POPC   H6R14945   2.002   5.735   5.396
  131POPC   H6S14946   2.149   5.836   5.418
  131POPC   C2714947   2.009   5.911   5.269
  131POPC   H7R14948   2.052   6.014   5.274
  131POPC   H7S14949   1.899   5.921   5.257
  131POPC   C2814950   2.066   5.842   5.143
  131POPC   H8R14951   2.176   5.828   5.157
  131POPC   H8S14952   2.053   5.911   5.058
  131POPC   C2914953   2.000   5.709   5.116
  131POPC   H9114954   2.036   5.626   5.179
  131POPC  C21014955   1.903   5.684   5.026
  131POPC  H10114956   1.864   5.582   5.018
  131POPC  C21114957   1.840   5.784   4.932
  131POPC  H11R14958   1.911   5.863   4.901
  131POPC  H11S14959   1.756   5.835   4.984
  131POPC  C21214960   1.782   5.717   4.806
  131POPC  H12R14961   1.718   5.792   4.753
  131POPC  H12S14962   1.716   5.632   4.833
  131POPC  C21314963   1.890   5.671   4.706
  131POPC  H13R14964   1.954   5.593   4.752
  131POPC  H13S14965   1.954   5.759   4.683
  131POPC  C21414966   1.829   5.619   4.575
  131POPC  H14R14967   1.760   5.696   4.537
  131POPC  H14S14968   1.770   5.527   4.597
  131POPC  C21514969   1.934   5.588   4.468
  131POPC  H15R14970   1.996   5.502   4.502
  131POPC  H15S14971   2.001   5.676   4.457
  131POPC  C21614972   1.876   5.557   4.329
  131POPC  H16R14973   1.807   5.470   4.336
  131POPC  H16S14974   1.960   5.527   4.262
  131POPC  C21714975   1.803   5.676   4.265
  131POPC  H17R14976   1.867   5.766   4.272
  131POPC  H17S14977   1.711   5.699   4.322
  131POPC  C21814978   1.764   5.653   4.118
  131POPC  H18R14979   1.698   5.564   4.109
  131POPC  H18S14980   1.855   5.636   4.056
  131POPC  H18T14981   1.711   5.742   4.078
  131POPC   C3314982   2.411   5.993   5.492
  131POPC   H3X14983   2.346   6.035   5.571
  131POPC   H3Y14984   2.358   5.904   5.450
  131POPC   C3414985   2.423   6.099   5.382
  131POPC   H4X14986   2.499   6.175   5.408
  131POPC   H4Y14987   2.324   6.150   5.376
  131POPC   C3514988   2.450   6.042   5.242
  131POPC   H5X14989   2.379   5.959   5.222
  131POPC   H5Y14990   2.553   6.000   5.238
  131POPC   C3614991   2.433   6.149   5.133
  131POPC   H6X14992   2.513   6.224   5.146
  131POPC   H6Y14993   2.336   6.201   5.146
  131POPC   C3714994   2.439   6.094   4.989
  131POPC   H7X14995   2.529   6.031   4.976
  131POPC   H7Y14996   2.450   6.182   4.922
  131POPC   C3814997   2.314   6.017   4.944
  131POPC   H8X14998   2.223   6.075   4.971
  131POPC   H8Y14999   2.310   5.920   4.998
  131POPC   C3915000   2.314   5.992   4.792
  131POPC   H9X15001   2.412   5.948   4.766
  131POPC   H9Y15002   2.307   6.088   4.737
  131POPC  C31015003   2.202   5.898   4.745
  131POPC  H10X15004   2.112   5.959   4.725
  131POPC  H10Y15005   2.176   5.827   4.827
  131POPC  C31115006   2.239   5.815   4.621
  131POPC  H11X15007   2.146   5.766   4.584
  131POPC  H11Y15008   2.309   5.734   4.649
  131POPC  C31215009   2.300   5.897   4.506
  131POPC  H12X15010   2.408   5.911   4.527
  131POPC  H12Y15011   2.252   5.997   4.503
  131POPC  C31315012   2.284   5.830   4.368
  131POPC  H13X15013   2.286   5.719   4.380
  131POPC  H13Y15014   2.370   5.858   4.304
  131POPC  C31415015   2.154   5.872   4.296
  131POPC  H14X15016   2.160   5.979   4.269
  131POPC  H14Y15017   2.069   5.861   4.367
  131POPC  C31515018   2.124   5.789   4.170
  131POPC  H15X15019   2.025   5.820   4.131
  131POPC  H15Y15020   2.117   5.682   4.199
  131POPC  C31615021   2.226   5.804   4.057
  131POPC  H16X15022   2.329   5.785   4.093
  131POPC  H16Y15023   2.220   5.906   4.014
  131POPC  H16Z15024   2.205   5.732   3.974
  132POPC     N15025   2.921   1.188   6.340
  132POPC   C1215026   3.048   1.202   6.255
  132POPC  H12A15027   3.126   1.139   6.294
  132POPC  H12B15028   3.083   1.304   6.260
  132POPC   C1315029   2.871   1.048   6.329
  132POPC  H13A15030   2.778   1.034   6.383
  132POPC  H13B15031   2.850   1.026   6.225
  132POPC  H13C15032   2.945   0.977   6.362
  132POPC   C1415033   2.949   1.225   6.483
  132POPC  H14A15034   2.976   1.329   6.491
  132POPC  H14B15035   2.861   1.210   6.544
  132POPC  H14C15036   3.028   1.165   6.524
  132POPC   C1515037   2.815   1.279   6.287
  132POPC  H15A15038   2.842   1.382   6.300
  132POPC  H15B15039   2.719   1.257   6.333
  132POPC  H15C15040   2.807   1.263   6.181
  132POPC   C1115041   3.034   1.171   6.104
  132POPC  H11A15042   2.992   1.070   6.088
  132POPC  H11B15043   3.134   1.170   6.057
  132POPC     P15044   3.007   1.409   6.007
  132POPC   O1315045   3.092   1.457   6.120
  132POPC   O1415046   2.893   1.497   5.974
  132POPC   O1215047   2.948   1.268   6.043
  132POPC   O1115048   3.097   1.375   5.883
  132POPC    C115049   3.124   1.464   5.775
  132POPC    HA15050   3.226   1.440   5.737
  132POPC    HB15051   3.124   1.570   5.808
  132POPC    C215052   3.025   1.447   5.656
  132POPC    HS15053   2.926   1.481   5.693
  132POPC   O2115054   3.026   1.309   5.611
  132POPC   C2115055   2.906   1.262   5.579
  132POPC   O2215056   2.801   1.324   5.584
  132POPC   C2215057   2.913   1.114   5.538
  132POPC   H2R15058   2.809   1.084   5.514
  132POPC   H2S15059   2.946   1.056   5.627
  132POPC    C315060   3.070   1.542   5.541
  132POPC    HX15061   3.174   1.513   5.513
  132POPC    HY15062   3.077   1.646   5.579
  132POPC   O3115063   2.988   1.532   5.423
  132POPC   C3115064   2.880   1.610   5.425
  132POPC   O3215065   2.850   1.686   5.515
  132POPC   C3215066   2.804   1.595   5.295
  132POPC   H2X15067   2.873   1.612   5.210
  132POPC   H2Y15068   2.728   1.677   5.293
  132POPC   C2315069   3.003   1.083   5.416
  132POPC   H3R15070   3.110   1.099   5.443
  132POPC   H3S15071   2.979   1.156   5.335
  132POPC   C2415072   2.984   0.938   5.365
  132POPC   H4R15073   2.876   0.919   5.353
  132POPC   H4S15074   3.018   0.870   5.446
  132POPC   C2515075   3.055   0.895   5.234
  132POPC   H5R15076   2.978   0.893   5.154
  132POPC   H5S15077   3.090   0.790   5.245
  132POPC   C2615078   3.170   0.983   5.184
  132POPC   H6R15079   3.141   1.089   5.193
  132POPC   H6S15080   3.186   0.964   5.076
  132POPC   C2715081   3.304   0.959   5.255
  132POPC   H7R15082   3.354   0.872   5.207
  132POPC   H7S15083   3.287   0.933   5.361
  132POPC   C2815084   3.397   1.082   5.244
  132POPC   H8R15085   3.397   1.118   5.139
  132POPC   H8S15086   3.500   1.047   5.266
  132POPC   C2915087   3.359   1.189   5.343
  132POPC   H9115088   3.391   1.169   5.446
  132POPC  C21015089   3.290   1.302   5.318
  132POPC  H10115090   3.270   1.369   5.402
  132POPC  C21115091   3.234   1.349   5.186
  132POPC  H11R15092   3.124   1.363   5.195
  132POPC  H11S15093   3.251   1.277   5.104
  132POPC  C21215094   3.298   1.484   5.147
  132POPC  H12R15095   3.407   1.469   5.138
  132POPC  H12S15096   3.280   1.557   5.229
  132POPC  C21315097   3.246   1.545   5.015
  132POPC  H13R15098   3.247   1.467   4.935
  132POPC  H13S15099   3.318   1.624   4.985
  132POPC  C21415100   3.107   1.610   5.028
  132POPC  H14R15101   3.111   1.714   4.990
  132POPC  H14S15102   3.081   1.615   5.136
  132POPC  C21515103   2.996   1.534   4.953
  132POPC  H15R15104   2.899   1.572   4.990
  132POPC  H15S15105   3.003   1.426   4.978
  132POPC  C21615106   2.998   1.553   4.801
  132POPC  H16R15107   3.092   1.513   4.759
  132POPC  H16S15108   2.993   1.662   4.778
  132POPC  C21715109   2.878   1.483   4.734
  132POPC  H17R15110   2.785   1.517   4.784
  132POPC  H17S15111   2.887   1.374   4.752
  132POPC  C21815112   2.868   1.509   4.584
  132POPC  H18R15113   2.783   1.452   4.541
  132POPC  H18S15114   2.961   1.478   4.533
  132POPC  H18T15115   2.850   1.617   4.565
  132POPC   C3315116   2.733   1.459   5.281
  132POPC   H3X15117   2.632   1.480   5.239
  132POPC   H3Y15118   2.714   1.412   5.380
  132POPC   C3415119   2.806   1.361   5.188
  132POPC   H4X15120   2.912   1.356   5.219
  132POPC   H4Y15121   2.802   1.401   5.084
  132POPC   C3515122   2.749   1.218   5.187
  132POPC   H5X15123   2.646   1.217   5.146
  132POPC   H5Y15124   2.743   1.184   5.293
  132POPC   C3615125   2.835   1.119   5.108
  132POPC   H6X15126   2.803   1.016   5.134
  132POPC   H6Y15127   2.941   1.132   5.139
  132POPC   C3715128   2.832   1.134   4.956
  132POPC   H7X15129   2.851   1.240   4.930
  132POPC   H7Y15130   2.732   1.104   4.920
  132POPC   C3815131   2.939   1.049   4.884
  132POPC   H8X15132   2.918   0.942   4.902
  132POPC   H8Y15133   3.039   1.072   4.927
  132POPC   C3915134   2.943   1.076   4.733
  132POPC   H9X15135   3.017   1.007   4.686
  132POPC   H9Y15136   2.980   1.180   4.716
  132POPC  C31015137   2.806   1.060   4.666
  132POPC  H10X15138   2.741   1.145   4.696
  132POPC  H10Y15139   2.761   0.967   4.706
  132POPC  C31115140   2.809   1.050   4.513
  132POPC  H11X15141   2.705   1.060   4.474
  132POPC  H11Y15142   2.843   0.948   4.485
  132POPC  C31215143   2.898   1.154   4.444
  132POPC  H12X15144   2.998   1.160   4.491
  132POPC  H12Y15145   2.849   1.253   4.453
  132POPC  C31315146   2.918   1.119   4.296
  132POPC  H13X15147   2.819   1.091   4.254
  132POPC  H13Y15148   2.984   1.031   4.286
  132POPC  C31415149   2.973   1.236   4.213
  132POPC  H14X15150   3.082   1.248   4.232
  132POPC  H14Y15151   2.925   1.331   4.246
  132POPC  C31515152   2.944   1.217   4.064
  132POPC  H15X15153   2.973   1.310   4.009
  132POPC  H15Y15154   2.835   1.202   4.051
  132POPC  C31615155   3.013   1.097   4.001
  132POPC  H16X15156   2.990   1.004   4.056
  132POPC  H16Y15157   3.123   1.113   4.003
  132POPC  H16Z15158   2.982   1.084   3.895
  133POPC     N15159   2.373   1.417   6.225
  133POPC   C1215160   2.332   1.537   6.141
  133POPC  H12A15161   2.395   1.541   6.054
  133POPC  H12B15162   2.352   1.627   6.198
  133POPC   C1315163   2.369   1.289   6.148
  133POPC  H13A15164   2.271   1.269   6.107
  133POPC  H13B15165   2.438   1.288   6.065
  133POPC  H13C15166   2.393   1.205   6.211
  133POPC   C1415167   2.512   1.435   6.277
  133POPC  H14A15168   2.518   1.519   6.345
  133POPC  H14B15169   2.540   1.346   6.331
  133POPC  H14C15170   2.581   1.450   6.195
  133POPC   C1515171   2.281   1.403   6.343
  133POPC  H15A15172   2.179   1.404   6.308
  133POPC  H15B15173   2.291   1.489   6.409
  133POPC  H15C15174   2.302   1.312   6.396
  133POPC   C1115175   2.184   1.549   6.096
  133POPC  H11A15176   2.155   1.454   6.046
  133POPC  H11B15177   2.177   1.630   6.020
  133POPC     P15178   1.942   1.579   6.191
  133POPC   O1315179   1.901   1.706   6.125
  133POPC   O1415180   1.885   1.556   6.326
  133POPC   O1215181   2.100   1.581   6.208
  133POPC   O1115182   1.918   1.450   6.102
  133POPC    C115183   1.945   1.321   6.160
  133POPC    HA15184   1.896   1.310   6.259
  133POPC    HB15185   2.054   1.308   6.175
  133POPC    C215186   1.896   1.200   6.072
  133POPC    HS15187   1.946   1.108   6.110
  133POPC   O2115188   1.927   1.220   5.933
  133POPC   C2115189   2.055   1.218   5.902
  133POPC   O2215190   2.146   1.188   5.977
  133POPC   C2215191   2.073   1.261   5.756
  133POPC   H2R15192   2.168   1.317   5.748
  133POPC   H2S15193   1.989   1.330   5.731
  133POPC    C315194   1.743   1.178   6.087
  133POPC    HX15195   1.721   1.163   6.195
  133POPC    HY15196   1.714   1.084   6.036
  133POPC   O3115197   1.668   1.292   6.041
  133POPC   C3115198   1.639   1.290   5.911
  133POPC   O3215199   1.647   1.192   5.838
  133POPC   C3215200   1.592   1.428   5.868
  133POPC   H2X15201   1.654   1.505   5.918
  133POPC   H2Y15202   1.487   1.437   5.905
  133POPC   C2315203   2.073   1.142   5.658
  133POPC   H3R15204   1.991   1.072   5.686
  133POPC   H3S15205   2.169   1.087   5.666
  133POPC   C2415206   2.049   1.180   5.511
  133POPC   H4R15207   1.963   1.251   5.503
  133POPC   H4S15208   2.017   1.088   5.457
  133POPC   C2515209   2.172   1.236   5.436
  133POPC   H5R15210   2.264   1.185   5.470
  133POPC   H5S15211   2.182   1.344   5.462
  133POPC   C2615212   2.158   1.219   5.284
  133POPC   H6R15213   2.052   1.239   5.260
  133POPC   H6S15214   2.179   1.115   5.253
  133POPC   C2715215   2.240   1.319   5.199
  133POPC   H7R15216   2.233   1.418   5.249
  133POPC   H7S15217   2.191   1.326   5.100
  133POPC   C2815218   2.388   1.288   5.171
  133POPC   H8R15219   2.397   1.193   5.113
  133POPC   H8S15220   2.441   1.273   5.267
  133POPC   C2915221   2.442   1.409   5.097
  133POPC   H9115222   2.421   1.503   5.149
  133POPC  C21015223   2.510   1.416   4.981
  133POPC  H10115224   2.540   1.516   4.945
  133POPC  C21115225   2.552   1.304   4.890
  133POPC  H11R15226   2.533   1.205   4.937
  133POPC  H11S15227   2.661   1.312   4.872
  133POPC  C21215228   2.483   1.309   4.753
  133POPC  H12R15229   2.508   1.217   4.696
  133POPC  H12S15230   2.523   1.396   4.696
  133POPC  C21315231   2.331   1.323   4.763
  133POPC  H13R15232   2.290   1.337   4.661
  133POPC  H13S15233   2.307   1.417   4.819
  133POPC  C21415234   2.261   1.206   4.834
  133POPC  H14R15235   2.171   1.246   4.885
  133POPC  H14S15236   2.324   1.161   4.913
  133POPC  C21515237   2.219   1.098   4.735
  133POPC  H15R15238   2.296   1.019   4.728
  133POPC  H15S15239   2.215   1.147   4.635
  133POPC  C21615240   2.081   1.036   4.760
  133POPC  H16R15241   2.022   1.104   4.825
  133POPC  H16S15242   2.093   0.941   4.816
  133POPC  C21715243   2.003   1.016   4.630
  133POPC  H17R15244   2.029   0.918   4.585
  133POPC  H17S15245   2.038   1.092   4.556
  133POPC  C21815246   1.851   1.032   4.645
  133POPC  H18R15247   1.801   1.022   4.546
  133POPC  H18S15248   1.826   1.132   4.687
  133POPC  H18T15249   1.808   0.954   4.711
  133POPC   C3315250   1.591   1.450   5.715
  133POPC   H3X15251   1.531   1.541   5.695
  133POPC   H3Y15252   1.542   1.365   5.663
  133POPC   C3415253   1.731   1.473   5.658
  133POPC   H4X15254   1.790   1.379   5.668
  133POPC   H4Y15255   1.782   1.551   5.717
  133POPC   C3515256   1.728   1.515   5.510
  133POPC   H5X15257   1.660   1.601   5.498
  133POPC   H5Y15258   1.688   1.431   5.450
  133POPC   C3615259   1.867   1.553   5.458
  133POPC   H6X15260   1.938   1.470   5.479
  133POPC   H6Y15261   1.904   1.642   5.512
  133POPC   C3715262   1.868   1.581   5.307
  133POPC   H7X15263   1.802   1.668   5.284
  133POPC   H7Y15264   1.827   1.492   5.255
  133POPC   C3815265   2.010   1.610   5.256
  133POPC   H8X15266   2.073   1.525   5.290
  133POPC   H8Y15267   2.048   1.701   5.306
  133POPC   C3915268   2.024   1.626   5.104
  133POPC   H9X15269   2.131   1.642   5.082
  133POPC   H9Y15270   1.969   1.717   5.072
  133POPC  C31015271   1.976   1.507   5.020
  133POPC  H10X15272   1.865   1.498   5.026
  133POPC  H10Y15273   2.015   1.412   5.062
  133POPC  C31115274   2.018   1.520   4.873
  133POPC  H11X15275   2.129   1.520   4.869
  133POPC  H11Y15276   1.981   1.617   4.834
  133POPC  C31215277   1.962   1.407   4.786
  133POPC  H12X15278   1.851   1.414   4.785
  133POPC  H12Y15279   1.984   1.310   4.835
  133POPC  C31315280   2.010   1.400   4.640
  133POPC  H13X15281   1.922   1.384   4.574
  133POPC  H13Y15282   2.072   1.308   4.630
  133POPC  C31415283   2.092   1.517   4.584
  133POPC  H14X15284   2.142   1.479   4.492
  133POPC  H14Y15285   2.173   1.548   4.653
  133POPC  C31515286   2.009   1.639   4.542
  133POPC  H15X15287   1.981   1.698   4.632
  133POPC  H15Y15288   1.914   1.603   4.496
  133POPC  C31615289   2.081   1.728   4.441
  133POPC  H16X15290   2.104   1.671   4.349
  133POPC  H16Y15291   2.177   1.765   4.484
  133POPC  H16Z15292   2.018   1.815   4.413
  134POPC     N15293   4.518   6.603   6.229
  134POPC   C1215294   4.639   6.642   6.314
  134POPC  H12A15295   4.716   6.569   6.297
  134POPC  H12B15296   4.613   6.634   6.419
  134POPC   C1315297   4.433   6.501   6.298
  134POPC  H13A15298   4.386   6.540   6.387
  134POPC  H13B15299   4.357   6.465   6.231
  134POPC  H13C15300   4.493   6.415   6.325
  134POPC   C1415301   4.436   6.723   6.193
  134POPC  H14A15302   4.499   6.791   6.138
  134POPC  H14B15303   4.353   6.694   6.130
  134POPC  H14C15304   4.399   6.773   6.281
  134POPC   C1515305   4.564   6.540   6.101
  134POPC  H15A15306   4.629   6.456   6.121
  134POPC  H15B15307   4.621   6.610   6.041
  134POPC  H15C15308   4.480   6.503   6.044
  134POPC   C1115309   4.703   6.782   6.292
  134POPC  H11A15310   4.789   6.794   6.361
  134POPC  H11B15311   4.630   6.861   6.320
  134POPC     P15312   4.877   6.732   6.106
  134POPC   O1315313   4.888   6.600   6.171
  134POPC   O1415314   4.990   6.826   6.127
  134POPC   O1215315   4.743   6.803   6.156
  134POPC   O1115316   4.845   6.717   5.952
  134POPC    C115317   4.902   6.814   5.863
  134POPC    HA15318   5.012   6.802   5.861
  134POPC    HB15319   4.880   6.918   5.896
  134POPC    C215320   4.855   6.796   5.715
  134POPC    HS15321   4.903   6.875   5.653
  134POPC   O2115322   4.712   6.801   5.699
  134POPC   C2115323   4.652   6.915   5.725
  134POPC   O2215324   4.701   7.013   5.779
  134POPC   C2215325   4.508   6.910   5.673
  134POPC   H2R15326   4.443   6.897   5.762
  134POPC   H2S15327   4.495   6.822   5.606
  134POPC    C315328   4.904   6.660   5.660
  134POPC    HX15329   4.857   6.582   5.725
  134POPC    HY15330   5.014   6.653   5.673
  134POPC   O3115331   4.869   6.648   5.521
  134POPC   C3115332   4.833   6.526   5.484
  134POPC   O3215333   4.847   6.424   5.549
  134POPC   C3215334   4.766   6.536   5.347
  134POPC   H2X15335   4.843   6.564   5.272
  134POPC   H2Y15336   4.692   6.620   5.353
  134POPC   C2315337   4.466   7.040   5.598
  134POPC   H3R15338   4.513   7.129   5.646
  134POPC   H3S15339   4.356   7.054   5.608
  134POPC   C2415340   4.501   7.037   5.448
  134POPC   H4R15341   4.411   7.010   5.389
  134POPC   H4S15342   4.577   6.958   5.431
  134POPC   C2515343   4.560   7.169   5.397
  134POPC   H5R15344   4.640   7.200   5.467
  134POPC   H5S15345   4.484   7.251   5.396
  134POPC   C2615346   4.624   7.154   5.258
  134POPC   H6R15347   4.651   7.048   5.240
  134POPC   H6S15348   4.718   7.212   5.259
  134POPC   C2715349   4.542   7.208   5.140
  134POPC   H7R15350   4.535   7.319   5.149
  134POPC   H7S15351   4.438   7.168   5.144
  134POPC   C2815352   4.602   7.174   5.001
  134POPC   H8R15353   4.564   7.246   4.926
  134POPC   H8S15354   4.566   7.073   4.972
  134POPC   C2915355   4.753   7.179   5.004
  134POPC   H9115356   4.794   7.274   5.040
  134POPC  C21015357   4.838   7.081   4.969
  134POPC  H10115358   4.946   7.100   4.984
  134POPC  C21115359   4.809   6.943   4.916
  134POPC  H11R15360   4.700   6.925   4.900
  134POPC  H11S15361   4.846   6.866   4.987
  134POPC  C21215362   4.882   6.929   4.782
  134POPC  H12R15363   4.990   6.952   4.795
  134POPC  H12S15364   4.840   6.999   4.707
  134POPC  C21315365   4.884   6.787   4.728
  134POPC  H13R15366   4.781   6.746   4.724
  134POPC  H13S15367   4.943   6.728   4.802
  134POPC  C21415368   4.953   6.773   4.592
  134POPC  H14R15369   4.985   6.668   4.576
  134POPC  H14S15370   5.044   6.837   4.592
  134POPC  C21515371   4.861   6.813   4.477
  134POPC  H15R15372   4.793   6.893   4.514
  134POPC  H15S15373   4.797   6.727   4.448
  134POPC  C21615374   4.935   6.868   4.354
  134POPC  H16R15375   5.028   6.920   4.384
  134POPC  H16S15376   4.870   6.944   4.306
  134POPC  C21715377   4.964   6.759   4.252
  134POPC  H17R15378   4.874   6.696   4.236
  134POPC  H17S15379   5.044   6.693   4.291
  134POPC  C21815380   5.006   6.819   4.119
  134POPC  H18R15381   5.051   6.743   4.052
  134POPC  H18S15382   5.082   6.899   4.135
  134POPC  H18T15383   4.918   6.861   4.065
  134POPC   C3315384   4.692   6.407   5.308
  134POPC   H3X15385   4.626   6.428   5.221
  134POPC   H3Y15386   4.624   6.375   5.391
  134POPC   C3415387   4.785   6.290   5.272
  134POPC   H4X15388   4.720   6.207   5.234
  134POPC   H4Y15389   4.837   6.254   5.362
  134POPC   C3515390   4.886   6.317   5.161
  134POPC   H5X15391   4.941   6.223   5.136
  134POPC   H5Y15392   4.962   6.391   5.195
  134POPC   C3615393   4.817   6.369   5.035
  134POPC   H6X15394   4.762   6.462   5.061
  134POPC   H6Y15395   4.742   6.295   5.000
  134POPC   C3715396   4.912   6.405   4.922
  134POPC   H7X15397   4.949   6.312   4.873
  134POPC   H7Y15398   5.000   6.459   4.963
  134POPC   C3815399   4.842   6.495   4.822
  134POPC   H8X15400   4.913   6.517   4.739
  134POPC   H8Y15401   4.814   6.589   4.874
  134POPC   C3915402   4.712   6.437   4.764
  134POPC   H9X15403   4.630   6.440   4.838
  134POPC   H9Y15404   4.737   6.330   4.747
  134POPC  C31015405   4.669   6.502   4.631
  134POPC  H10X15406   4.624   6.425   4.566
  134POPC  H10Y15407   4.757   6.541   4.576
  134POPC  C31115408   4.560   6.610   4.644
  134POPC  H11X15409   4.605   6.708   4.617
  134POPC  H11Y15410   4.524   6.618   4.748
  134POPC  C31215411   4.440   6.582   4.550
  134POPC  H12X15412   4.371   6.511   4.601
  134POPC  H12Y15413   4.475   6.532   4.457
  134POPC  C31315414   4.366   6.711   4.511
  134POPC  H13X15415   4.405   6.793   4.575
  134POPC  H13Y15416   4.257   6.701   4.534
  134POPC  C31415417   4.381   6.749   4.363
  134POPC  H14X15418   4.335   6.849   4.349
  134POPC  H14Y15419   4.327   6.677   4.299
  134POPC  C31515420   4.527   6.755   4.317
  134POPC  H15X15421   4.549   6.671   4.248
  134POPC  H15Y15422   4.594   6.742   4.405
  134POPC  C31615423   4.562   6.887   4.251
  134POPC  H16X15424   4.538   6.973   4.318
  134POPC  H16Y15425   4.506   6.900   4.157
  134POPC  H16Z15426   4.671   6.891   4.229
  135POPC     N15427   6.351   2.269   6.094
  135POPC   C1215428   6.332   2.270   6.245
  135POPC  H12A15429   6.229   2.294   6.268
  135POPC  H12B15430   6.395   2.347   6.287
  135POPC   C1315431   6.294   2.142   6.038
  135POPC  H13A15432   6.309   2.134   5.931
  135POPC  H13B15433   6.349   2.058   6.079
  135POPC  H13C15434   6.190   2.128   6.062
  135POPC   C1415435   6.286   2.386   6.027
  135POPC  H14A15436   6.325   2.481   6.063
  135POPC  H14B15437   6.304   2.383   5.921
  135POPC  H14C15438   6.179   2.385   6.040
  135POPC   C1515439   6.498   2.266   6.065
  135POPC  H15A15440   6.550   2.355   6.097
  135POPC  H15B15441   6.517   2.249   5.960
  135POPC  H15C15442   6.542   2.182   6.117
  135POPC   C1115443   6.367   2.140   6.322
  135POPC  H11A15444   6.301   2.057   6.289
  135POPC  H11B15445   6.343   2.156   6.430
  135POPC     P15446   6.553   1.961   6.281
  135POPC   O1315447   6.479   1.870   6.372
  135POPC   O1415448   6.700   1.959   6.290
  135POPC   O1215449   6.506   2.110   6.312
  135POPC   O1115450   6.504   1.950   6.131
  135POPC    C115451   6.551   1.850   6.040
  135POPC    HA15452   6.478   1.766   6.039
  135POPC    HB15453   6.648   1.806   6.072
  135POPC    C215454   6.572   1.898   5.890
  135POPC    HS15455   6.681   1.893   5.871
  135POPC   O2115456   6.520   2.032   5.868
  135POPC   C2115457   6.579   2.093   5.766
  135POPC   O2215458   6.692   2.075   5.727
  135POPC   C2215459   6.477   2.187   5.699
  135POPC   H2R15460   6.471   2.282   5.756
  135POPC   H2S15461   6.379   2.135   5.702
  135POPC    C315462   6.500   1.801   5.790
  135POPC    HX15463   6.395   1.791   5.826
  135POPC    HY15464   6.546   1.700   5.800
  135POPC   O3115465   6.495   1.850   5.653
  135POPC   C3115466   6.595   1.806   5.576
  135POPC   O3215467   6.684   1.732   5.612
  135POPC   C3215468   6.583   1.862   5.434
  135POPC   H2X15469   6.520   1.953   5.438
  135POPC   H2Y15470   6.529   1.787   5.373
  135POPC   C2315471   6.513   2.216   5.551
  135POPC   H3R15472   6.569   2.129   5.509
  135POPC   H3S15473   6.581   2.303   5.543
  135POPC   C2415474   6.389   2.236   5.463
  135POPC   H4R15475   6.340   2.328   5.502
  135POPC   H4S15476   6.319   2.150   5.474
  135POPC   C2515477   6.414   2.260   5.313
  135POPC   H5R15478   6.511   2.313   5.302
  135POPC   H5S15479   6.334   2.326   5.273
  135POPC   C2615480   6.415   2.136   5.223
  135POPC   H6R15481   6.479   2.060   5.273
  135POPC   H6S15482   6.461   2.163   5.126
  135POPC   C2715483   6.278   2.074   5.195
  135POPC   H7R15484   6.208   2.154   5.161
  135POPC   H7S15485   6.238   2.029   5.288
  135POPC   C2815486   6.282   1.966   5.085
  135POPC   H8R15487   6.310   2.019   4.992
  135POPC   H8S15488   6.181   1.923   5.071
  135POPC   C2915489   6.382   1.860   5.125
  135POPC   H9115490   6.368   1.826   5.229
  135POPC  C21015491   6.481   1.805   5.053
  135POPC  H10115492   6.548   1.734   5.105
  135POPC  C21115493   6.524   1.827   4.911
  135POPC  H11R15494   6.581   1.738   4.878
  135POPC  H11S15495   6.594   1.913   4.905
  135POPC  C21215496   6.410   1.843   4.809
  135POPC  H12R15497   6.361   1.942   4.819
  135POPC  H12S15498   6.331   1.766   4.828
  135POPC  C21315499   6.459   1.832   4.665
  135POPC  H13R15500   6.481   1.725   4.642
  135POPC  H13S15501   6.556   1.886   4.655
  135POPC  C21415502   6.360   1.888   4.563
  135POPC  H14R15503   6.382   1.840   4.465
  135POPC  H14S15504   6.378   1.997   4.552
  135POPC  C21515505   6.211   1.870   4.598
  135POPC  H15R15506   6.178   1.953   4.663
  135POPC  H15S15507   6.196   1.776   4.655
  135POPC  C21615508   6.124   1.863   4.472
  135POPC  H16R15509   6.017   1.854   4.501
  135POPC  H16S15510   6.151   1.772   4.415
  135POPC  C21715511   6.142   1.984   4.380
  135POPC  H17R15512   6.250   2.003   4.361
  135POPC  H17S15513   6.102   2.074   4.431
  135POPC  C21815514   6.074   1.962   4.246
  135POPC  H18R15515   6.128   1.883   4.189
  135POPC  H18S15516   6.073   2.055   4.186
  135POPC  H18T15517   5.970   1.928   4.260
  135POPC   C3315518   6.723   1.888   5.372
  135POPC   H3X15519   6.753   1.790   5.330
  135POPC   H3Y15520   6.797   1.915   5.450
  135POPC   C3415521   6.736   1.991   5.257
  135POPC   H4X15522   6.644   1.994   5.195
  135POPC   H4Y15523   6.814   1.955   5.187
  135POPC   C3515524   6.784   2.130   5.302
  135POPC   H5X15525   6.889   2.123   5.339
  135POPC   H5Y15526   6.722   2.164   5.387
  135POPC   C3615527   6.775   2.236   5.191
  135POPC   H6X15528   6.780   2.337   5.237
  135POPC   H6Y15529   6.674   2.227   5.144
  135POPC   C3715530   6.884   2.227   5.083
  135POPC   H7X15531   6.884   2.125   5.040
  135POPC   H7Y15532   6.983   2.242   5.131
  135POPC   C3815533   6.867   2.329   4.969
  135POPC   H8X15534   6.946   2.310   4.893
  135POPC   H8Y15535   6.884   2.431   5.010
  135POPC   C3915536   6.730   2.328   4.900
  135POPC   H9X15537   6.730   2.400   4.815
  135POPC   H9Y15538   6.653   2.362   4.972
  135POPC  C31015539   6.689   2.189   4.848
  135POPC  H10X15540   6.698   2.116   4.930
  135POPC  H10Y15541   6.757   2.157   4.767
  135POPC  C31115542   6.542   2.184   4.801
  135POPC  H11X15543   6.476   2.227   4.880
  135POPC  H11Y15544   6.516   2.076   4.792
  135POPC  C31215545   6.513   2.246   4.665
  135POPC  H12X15546   6.531   2.356   4.668
  135POPC  H12Y15547   6.405   2.230   4.644
  135POPC  C31315548   6.594   2.182   4.551
  135POPC  H13X15549   6.603   2.073   4.570
  135POPC  H13Y15550   6.697   2.224   4.552
  135POPC  C31415551   6.530   2.202   4.413
  135POPC  H14X15552   6.520   2.311   4.394
  135POPC  H14Y15553   6.428   2.159   4.411
  135POPC  C31515554   6.613   2.139   4.301
  135POPC  H15X15555   6.720   2.167   4.314
  135POPC  H15Y15556   6.579   2.184   4.205
  135POPC  C31615557   6.600   1.987   4.290
  135POPC  H16X15558   6.495   1.958   4.269
  135POPC  H16Y15559   6.632   1.937   4.384
  135POPC  H16Z15560   6.664   1.949   4.207
  136POPC     N15561   6.753   4.704   6.089
  136POPC   C1215562   6.852   4.800   6.024
  136POPC  H12A15563   6.800   4.885   5.982
  136POPC  H12B15564   6.903   4.751   5.942
  136POPC   C1315565   6.828   4.587   6.144
  136POPC  H13A15566   6.880   4.534   6.065
  136POPC  H13B15567   6.905   4.623   6.210
  136POPC  H13C15568   6.763   4.520   6.199
  136POPC   C1415569   6.687   4.770   6.207
  136POPC  H14A15570   6.617   4.704   6.255
  136POPC  H14B15571   6.762   4.797   6.280
  136POPC  H14C15572   6.636   4.861   6.180
  136POPC   C1515573   6.651   4.655   5.992
  136POPC  H15A15574   6.698   4.596   5.914
  136POPC  H15B15575   6.600   4.736   5.942
  136POPC  H15C15576   6.580   4.590   6.040
  136POPC   C1115577   6.964   4.854   6.116
  136POPC  H11A15578   6.919   4.900   6.207
  136POPC  H11B15579   7.016   4.935   6.062
  136POPC     P15580   7.163   4.777   6.259
  136POPC   O1315581   7.254   4.661   6.268
  136POPC   O1415582   7.090   4.810   6.383
  136POPC   O1215583   7.055   4.748   6.148
  136POPC   O1115584   7.238   4.904   6.205
  136POPC    C115585   7.352   4.891   6.119
  136POPC    HA15586   7.420   4.809   6.150
  136POPC    HB15587   7.412   4.984   6.130
  136POPC    C215588   7.320   4.879   5.966
  136POPC    HS15589   7.411   4.913   5.912
  136POPC   O2115590   7.205   4.955   5.929
  136POPC   C2115591   7.223   5.084   5.929
  136POPC   O2215592   7.325   5.143   5.958
  136POPC   C2215593   7.096   5.150   5.883
  136POPC   H2R15594   7.114   5.260   5.878
  136POPC   H2S15595   7.018   5.129   5.959
  136POPC    C315596   7.292   4.735   5.919
  136POPC    HX15597   7.186   4.708   5.938
  136POPC    HY15598   7.355   4.666   5.979
  136POPC   O3115599   7.329   4.724   5.780
  136POPC   C3115600   7.237   4.756   5.689
  136POPC   O3215601   7.117   4.757   5.708
  136POPC   C3215602   7.308   4.784   5.556
  136POPC   H2X15603   7.279   4.701   5.488
  136POPC   H2Y15604   7.417   4.779   5.572
  136POPC   C2315605   7.050   5.098   5.746
  136POPC   H3R15606   7.057   4.987   5.742
  136POPC   H3S15607   7.117   5.138   5.667
  136POPC   C2415608   6.906   5.136   5.715
  136POPC   H4R15609   6.894   5.245   5.733
  136POPC   H4S15610   6.836   5.081   5.782
  136POPC   C2515611   6.872   5.114   5.569
  136POPC   H5R15612   6.949   5.170   5.512
  136POPC   H5S15613   6.773   5.158   5.545
  136POPC   C2615614   6.873   4.969   5.519
  136POPC   H6R15615   6.781   4.917   5.553
  136POPC   H6S15616   6.960   4.915   5.561
  136POPC   C2715617   6.881   4.968   5.366
  136POPC   H7R15618   6.973   5.022   5.333
  136POPC   H7S15619   6.794   5.024   5.326
  136POPC   C2815620   6.882   4.829   5.304
  136POPC   H8R15621   6.866   4.841   5.195
  136POPC   H8S15622   6.791   4.777   5.342
  136POPC   C2915623   7.007   4.749   5.333
  136POPC   H9115624   7.044   4.755   5.436
  136POPC  C21015625   7.070   4.669   5.245
  136POPC  H10115626   7.162   4.616   5.274
  136POPC  C21115627   7.024   4.648   5.103
  136POPC  H11R15628   6.914   4.632   5.101
  136POPC  H11S15629   7.070   4.558   5.058
  136POPC  C21215630   7.056   4.771   5.016
  136POPC  H12R15631   7.149   4.752   4.959
  136POPC  H12S15632   7.073   4.860   5.080
  136POPC  C21315633   6.944   4.811   4.919
  136POPC  H13R15634   6.975   4.905   4.868
  136POPC  H13S15635   6.851   4.835   4.976
  136POPC  C21415636   6.912   4.705   4.814
  136POPC  H14R15637   6.850   4.625   4.859
  136POPC  H14S15638   7.007   4.660   4.779
  136POPC  C21515639   6.839   4.764   4.692
  136POPC  H15R15640   6.817   4.680   4.622
  136POPC  H15S15641   6.907   4.834   4.639
  136POPC  C21615642   6.709   4.838   4.726
  136POPC  H16R15643   6.733   4.926   4.789
  136POPC  H16S15644   6.644   4.771   4.786
  136POPC  C21715645   6.631   4.885   4.603
  136POPC  H17R15646   6.695   4.955   4.544
  136POPC  H17S15647   6.543   4.944   4.637
  136POPC  C21815648   6.583   4.772   4.512
  136POPC  H18R15649   6.520   4.811   4.429
  136POPC  H18S15650   6.523   4.698   4.570
  136POPC  H18T15651   6.670   4.718   4.467
  136POPC   C3315652   7.274   4.919   5.487
  136POPC   H3X15653   7.308   5.004   5.551
  136POPC   H3Y15654   7.164   4.929   5.474
  136POPC   C3415655   7.342   4.927   5.349
  136POPC   H4X15656   7.341   4.824   5.307
  136POPC   H4Y15657   7.448   4.957   5.360
  136POPC   C3515658   7.273   5.016   5.243
  136POPC   H5X15659   7.290   5.124   5.265
  136POPC   H5Y15660   7.163   4.997   5.246
  136POPC   C3615661   7.323   4.982   5.102
  136POPC   H6X15662   7.307   4.873   5.088
  136POPC   H6Y15663   7.432   5.001   5.096
  136POPC   C3715664   7.253   5.050   4.983
  136POPC   H7X15665   7.273   5.159   4.985
  136POPC   H7Y15666   7.142   5.037   4.991
  136POPC   C3815667   7.301   4.988   4.851
  136POPC   H8X15668   7.303   4.878   4.860
  136POPC   H8Y15669   7.406   5.021   4.835
  136POPC   C3915670   7.219   5.025   4.726
  136POPC   H9X15671   7.202   5.134   4.725
  136POPC   H9Y15672   7.120   4.975   4.729
  136POPC  C31015673   7.292   4.983   4.597
  136POPC  H10X15674   7.303   4.873   4.593
  136POPC  H10Y15675   7.395   5.026   4.600
  136POPC  C31115676   7.223   5.033   4.469
  136POPC  H11X15677   7.198   5.141   4.482
  136POPC  H11Y15678   7.128   4.978   4.455
  136POPC  C31215679   7.312   5.018   4.344
  136POPC  H12X15680   7.332   4.911   4.325
  136POPC  H12Y15681   7.409   5.067   4.366
  136POPC  C31315682   7.252   5.085   4.219
  136POPC  H13X15683   7.330   5.087   4.139
  136POPC  H13Y15684   7.227   5.190   4.243
  136POPC  C31415685   7.127   5.016   4.161
  136POPC  H14X15686   7.087   5.078   4.079
  136POPC  H14Y15687   7.049   5.010   4.240
  136POPC  C31515688   7.155   4.876   4.106
  136POPC  H15X15689   7.193   4.813   4.189
  136POPC  H15Y15690   7.236   4.882   4.030
  136POPC  C31615691   7.033   4.807   4.045
  136POPC  H16X15692   7.060   4.706   4.007
  136POPC  H16Y15693   6.993   4.866   3.960
  136POPC  H16Z15694   6.953   4.796   4.121
  137POPC     N15695   3.061   7.156   6.156
  137POPC   C1215696   3.169   7.116   6.056
  137POPC  H12A15697   3.170   7.186   5.974
  137POPC  H12B15698   3.144   7.020   6.012
  137POPC   C1315699   3.118   7.255   6.252
  137POPC  H13A15700   3.050   7.273   6.334
  137POPC  H13B15701   3.209   7.213   6.291
  137POPC  H13C15702   3.143   7.347   6.202
  137POPC   C1415703   2.943   7.213   6.085
  137POPC  H14A15704   2.967   7.307   6.037
  137POPC  H14B15705   2.909   7.150   6.004
  137POPC  H14C15706   2.860   7.228   6.152
  137POPC   C1515707   3.013   7.036   6.232
  137POPC  H15A15708   2.976   6.960   6.165
  137POPC  H15B15709   2.933   7.062   6.300
  137POPC  H15C15710   3.095   6.992   6.288
  137POPC   C1115711   3.314   7.104   6.110
  137POPC  H11A15712   3.356   7.206   6.124
  137POPC  H11B15713   3.378   7.056   6.033
  137POPC     P15714   3.324   6.877   6.243
  137POPC   O1315715   3.237   6.835   6.357
  137POPC   O1415716   3.463   6.829   6.249
  137POPC   O1215717   3.321   7.034   6.236
  137POPC   O1115718   3.255   6.834   6.106
  137POPC    C115719   3.335   6.772   6.003
  137POPC    HA15720   3.340   6.663   6.025
  137POPC    HB15721   3.438   6.811   5.998
  137POPC    C215722   3.272   6.787   5.861
  137POPC    HS15723   3.307   6.698   5.804
  137POPC   O2115724   3.316   6.911   5.801
  137POPC   C2115725   3.327   6.904   5.668
  137POPC   O2215726   3.326   6.801   5.603
  137POPC   C2215727   3.329   7.044   5.608
  137POPC   H2R15728   3.420   7.097   5.643
  137POPC   H2S15729   3.240   7.099   5.645
  137POPC    C315730   3.117   6.783   5.867
  137POPC    HX15731   3.081   6.869   5.928
  137POPC    HY15732   3.089   6.691   5.922
  137POPC   O3115733   3.056   6.778   5.737
  137POPC   C3115734   3.017   6.894   5.683
  137POPC   O3215735   3.019   7.002   5.738
  137POPC   C3215736   2.967   6.862   5.542
  137POPC   H2X15737   2.880   6.795   5.552
  137POPC   H2Y15738   3.051   6.806   5.494
  137POPC   C2315739   3.327   7.039   5.453
  137POPC   H3R15740   3.239   6.982   5.417
  137POPC   H3S15741   3.418   6.985   5.419
  137POPC   C2415742   3.327   7.178   5.389
  137POPC   H4R15743   3.398   7.243   5.445
  137POPC   H4S15744   3.226   7.223   5.398
  137POPC   C2515745   3.372   7.178   5.242
  137POPC   H5R15746   3.479   7.152   5.236
  137POPC   H5S15747   3.362   7.283   5.204
  137POPC   C2615748   3.292   7.086   5.148
  137POPC   H6R15749   3.292   7.135   5.048
  137POPC   H6S15750   3.186   7.079   5.181
  137POPC   C2715751   3.356   6.946   5.133
  137POPC   H7R15752   3.346   6.889   5.228
  137POPC   H7S15753   3.464   6.961   5.114
  137POPC   C2815754   3.302   6.858   5.018
  137POPC   H8R15755   3.197   6.831   5.041
  137POPC   H8S15756   3.359   6.763   5.018
  137POPC   C2915757   3.313   6.930   4.885
  137POPC   H9115758   3.240   7.011   4.871
  137POPC  C21015759   3.400   6.905   4.786
  137POPC  H10115760   3.396   6.967   4.696
  137POPC  C21115761   3.508   6.799   4.783
  137POPC  H11R15762   3.531   6.761   4.885
  137POPC  H11S15763   3.602   6.842   4.743
  137POPC  C21215764   3.465   6.681   4.694
  137POPC  H12R15765   3.376   6.632   4.738
  137POPC  H12S15766   3.547   6.606   4.693
  137POPC  C21315767   3.434   6.722   4.549
  137POPC  H13R15768   3.524   6.770   4.506
  137POPC  H13S15769   3.353   6.798   4.549
  137POPC  C21415770   3.392   6.605   4.458
  137POPC  H14R15771   3.476   6.532   4.455
  137POPC  H14S15772   3.378   6.644   4.355
  137POPC  C21515773   3.264   6.530   4.501
  137POPC  H15R15774   3.287   6.468   4.590
  137POPC  H15S15775   3.238   6.461   4.418
  137POPC  C21615776   3.141   6.618   4.532
  137POPC  H16R15777   3.160   6.674   4.625
  137POPC  H16S15778   3.053   6.552   4.549
  137POPC  C21715779   3.109   6.717   4.420
  137POPC  H17R15780   3.090   6.662   4.325
  137POPC  H17S15781   3.199   6.781   4.404
  137POPC  C21815782   2.991   6.810   4.450
  137POPC  H18R15783   2.895   6.759   4.431
  137POPC  H18S15784   2.995   6.900   4.384
  137POPC  H18T15785   2.995   6.844   4.555
  137POPC   C3315786   2.924   6.980   5.451
  137POPC   H3X15787   3.010   7.048   5.433
  137POPC   H3Y15788   2.845   7.039   5.502
  137POPC   C3415789   2.869   6.929   5.317
  137POPC   H4X15790   2.838   7.015   5.254
  137POPC   H4Y15791   2.779   6.868   5.336
  137POPC   C3515792   2.970   6.843   5.238
  137POPC   H5X15793   3.013   6.764   5.303
  137POPC   H5Y15794   3.055   6.907   5.205
  137POPC   C3615795   2.911   6.768   5.118
  137POPC   H6X15796   2.829   6.703   5.155
  137POPC   H6Y15797   2.989   6.700   5.076
  137POPC   C3715798   2.860   6.857   5.004
  137POPC   H7X15799   2.787   6.932   5.042
  137POPC   H7Y15800   2.806   6.788   4.936
  137POPC   C3815801   2.972   6.926   4.926
  137POPC   H8X15802   3.045   6.848   4.898
  137POPC   H8Y15803   3.022   6.999   4.992
  137POPC   C3915804   2.929   6.994   4.795
  137POPC   H9X15805   2.889   6.916   4.727
  137POPC   H9Y15806   3.021   7.034   4.746
  137POPC  C31015807   2.825   7.107   4.808
  137POPC  H10X15808   2.732   7.066   4.851
  137POPC  H10Y15809   2.800   7.141   4.705
  137POPC  C31115810   2.869   7.230   4.890
  137POPC  H11X15811   2.857   7.206   4.998
  137POPC  H11Y15812   2.799   7.313   4.867
  137POPC  C31215813   3.013   7.279   4.867
  137POPC  H12X15814   3.081   7.200   4.905
  137POPC  H12Y15815   3.032   7.369   4.928
  137POPC  C31315816   3.048   7.308   4.721
  137POPC  H13X15817   3.008   7.407   4.690
  137POPC  H13Y15818   2.998   7.233   4.656
  137POPC  C31415819   3.200   7.301   4.696
  137POPC  H14X15820   3.244   7.222   4.760
  137POPC  H14Y15821   3.246   7.398   4.726
  137POPC  C31515822   3.237   7.267   4.551
  137POPC  H15X15823   3.347   7.279   4.540
  137POPC  H15Y15824   3.189   7.342   4.484
  137POPC  C31615825   3.198   7.125   4.507
  137POPC  H16X15826   3.235   7.050   4.580
  137POPC  H16Y15827   3.242   7.101   4.408
  137POPC  H16Z15828   3.088   7.115   4.499
  138POPC     N15829   6.590   5.761   6.010
  138POPC   C1215830   6.652   5.634   6.064
  138POPC  H12A15831   6.750   5.619   6.020
  138POPC  H12B15832   6.590   5.550   6.035
  138POPC   C1315833   6.464   5.790   6.085
  138POPC  H13A15834   6.389   5.714   6.066
  138POPC  H13B15835   6.484   5.788   6.191
  138POPC  H13C15836   6.423   5.887   6.060
  138POPC   C1415837   6.685   5.878   6.027
  138POPC  H14A15838   6.712   5.891   6.131
  138POPC  H14B15839   6.777   5.866   5.972
  138POPC  H14C15840   6.641   5.970   5.993
  138POPC   C1515841   6.558   5.747   5.864
  138POPC  H15A15842   6.515   5.838   5.826
  138POPC  H15B15843   6.486   5.668   5.847
  138POPC  H15C15844   6.647   5.727   5.806
  138POPC   C1115845   6.667   5.620   6.217
  138POPC  H11A15846   6.677   5.719   6.266
  138POPC  H11B15847   6.761   5.565   6.238
  138POPC     P15848   6.569   5.442   6.381
  138POPC   O1315849   6.437   5.384   6.415
  138POPC   O1415850   6.651   5.497   6.490
  138POPC   O1215851   6.552   5.551   6.266
  138POPC   O1115852   6.652   5.329   6.304
  138POPC    C115853   6.585   5.264   6.196
  138POPC    HA15854   6.574   5.334   6.110
  138POPC    HB15855   6.483   5.233   6.227
  138POPC    C215856   6.653   5.132   6.148
  138POPC    HS15857   6.656   5.063   6.235
  138POPC   O2115858   6.784   5.147   6.093
  138POPC   C2115859   6.858   5.249   6.132
  138POPC   O2215860   6.934   5.249   6.227
  138POPC   C2215861   6.852   5.356   6.022
  138POPC   H2R15862   6.750   5.401   6.019
  138POPC   H2S15863   6.869   5.303   5.925
  138POPC    C315864   6.567   5.072   6.034
  138POPC    HX15865   6.465   5.053   6.072
  138POPC    HY15866   6.614   4.975   6.004
  138POPC   O3115867   6.564   5.167   5.926
  138POPC   C3115868   6.549   5.118   5.803
  138POPC   O3215869   6.537   4.999   5.777
  138POPC   C3215870   6.549   5.238   5.708
  138POPC   H2X15871   6.654   5.274   5.698
  138POPC   H2Y15872   6.492   5.318   5.757
  138POPC   C2315873   6.960   5.465   6.038
  138POPC   H3R15874   7.052   5.415   6.077
  138POPC   H3S15875   6.932   5.541   6.114
  138POPC   C2415876   7.011   5.532   5.909
  138POPC   H4R15877   7.051   5.456   5.838
  138POPC   H4S15878   7.096   5.595   5.941
  138POPC   C2515879   6.918   5.625   5.831
  138POPC   H5R15880   6.981   5.706   5.787
  138POPC   H5S15881   6.849   5.678   5.901
  138POPC   C2615882   6.843   5.558   5.715
  138POPC   H6R15883   6.763   5.628   5.682
  138POPC   H6S15884   6.796   5.463   5.747
  138POPC   C2715885   6.934   5.534   5.593
  138POPC   H7R15886   6.987   5.437   5.600
  138POPC   H7S15887   7.014   5.612   5.594
  138POPC   C2815888   6.860   5.549   5.458
  138POPC   H8R15889   6.934   5.571   5.379
  138POPC   H8S15890   6.797   5.641   5.463
  138POPC   C2915891   6.776   5.431   5.419
  138POPC   H9115892   6.677   5.428   5.466
  138POPC  C21015893   6.811   5.329   5.338
  138POPC  H10115894   6.737   5.251   5.317
  138POPC  C21115895   6.943   5.308   5.269
  138POPC  H11R15896   7.002   5.228   5.319
  138POPC  H11S15897   7.007   5.399   5.278
  138POPC  C21215898   6.935   5.273   5.119
  138POPC  H12R15899   6.829   5.260   5.086
  138POPC  H12S15900   6.987   5.177   5.100
  138POPC  C21315901   7.001   5.383   5.036
  138POPC  H13R15902   7.110   5.384   5.056
  138POPC  H13S15903   6.959   5.480   5.070
  138POPC  C21415904   6.978   5.373   4.885
  138POPC  H14R15905   6.871   5.354   4.864
  138POPC  H14S15906   7.037   5.288   4.844
  138POPC  C21515907   7.021   5.504   4.819
  138POPC  H15R15908   7.124   5.529   4.853
  138POPC  H15S15909   6.954   5.586   4.855
  138POPC  C21615910   7.019   5.503   4.666
  138POPC  H16R15911   7.094   5.429   4.629
  138POPC  H16S15912   7.051   5.603   4.630
  138POPC  C21715913   6.884   5.469   4.604
  138POPC  H17R15914   6.806   5.535   4.648
  138POPC  H17S15915   6.858   5.364   4.628
  138POPC  C21815916   6.886   5.487   4.452
  138POPC  H18R15917   6.969   5.428   4.407
  138POPC  H18S15918   6.900   5.593   4.425
  138POPC  H18T15919   6.790   5.452   4.407
  138POPC   C3315920   6.488   5.215   5.567
  138POPC   H3X15921   6.428   5.122   5.562
  138POPC   H3Y15922   6.570   5.205   5.493
  138POPC   C3415923   6.399   5.334   5.527
  138POPC   H4X15924   6.443   5.428   5.565
  138POPC   H4Y15925   6.300   5.323   5.576
  138POPC   C3515926   6.377   5.347   5.375
  138POPC   H5X15927   6.268   5.343   5.353
  138POPC   H5Y15928   6.424   5.261   5.324
  138POPC   C3615929   6.433   5.479   5.319
  138POPC   H6X15930   6.514   5.517   5.386
  138POPC   H6Y15931   6.354   5.557   5.319
  138POPC   C3715932   6.494   5.464   5.180
  138POPC   H7X15933   6.562   5.376   5.175
  138POPC   H7Y15934   6.556   5.554   5.159
  138POPC   C3815935   6.387   5.453   5.071
  138POPC   H8X15936   6.312   5.533   5.091
  138POPC   H8Y15937   6.335   5.355   5.079
  138POPC   C3915938   6.442   5.472   4.930
  138POPC   H9X15939   6.463   5.373   4.884
  138POPC   H9Y15940   6.538   5.527   4.935
  138POPC  C31015941   6.346   5.554   4.843
  138POPC  H10X15942   6.327   5.650   4.894
  138POPC  H10Y15943   6.248   5.501   4.834
  138POPC  C31115944   6.401   5.584   4.703
  138POPC  H11X15945   6.505   5.623   4.715
  138POPC  H11Y15946   6.341   5.665   4.656
  138POPC  C31215947   6.401   5.463   4.608
  138POPC  H12X15948   6.308   5.465   4.547
  138POPC  H12Y15949   6.401   5.369   4.666
  138POPC  C31315950   6.523   5.465   4.516
  138POPC  H13X15951   6.613   5.444   4.577
  138POPC  H13Y15952   6.534   5.567   4.473
  138POPC  C31415953   6.516   5.364   4.401
  138POPC  H14X15954   6.601   5.382   4.331
  138POPC  H14Y15955   6.423   5.381   4.343
  138POPC  C31515956   6.523   5.218   4.446
  138POPC  H15X15957   6.433   5.196   4.508
  138POPC  H15Y15958   6.611   5.203   4.512
  138POPC  C31615959   6.530   5.121   4.328
  138POPC  H16X15960   6.628   5.129   4.278
  138POPC  H16Y15961   6.450   5.144   4.254
  138POPC  H16Z15962   6.516   5.016   4.363
  139POPC     N15963   7.466   4.064   6.104
  139POPC   C1215964   7.392   3.957   6.184
  139POPC  H12A15965   7.378   3.993   6.285
  139POPC  H12B15966   7.455   3.870   6.190
  139POPC   C1315967   7.488   4.021   5.962
  139POPC  H13A15968   7.539   4.097   5.905
  139POPC  H13B15969   7.546   3.930   5.954
  139POPC  H13C15970   7.393   4.003   5.913
  139POPC   C1415971   7.385   4.190   6.102
  139POPC  H14A15972   7.286   4.167   6.065
  139POPC  H14B15973   7.372   4.232   6.200
  139POPC  H14C15974   7.429   4.266   6.040
  139POPC   C1515975   7.597   4.096   6.170
  139POPC  H15A15976   7.646   4.177   6.118
  139POPC  H15B15977   7.662   4.010   6.172
  139POPC  H15C15978   7.581   4.130   6.271
  139POPC   C1115979   7.252   3.910   6.134
  139POPC  H11A15980   7.222   3.820   6.191
  139POPC  H11B15981   7.261   3.879   6.028
  139POPC     P15982   7.066   4.042   6.270
  139POPC   O1315983   7.150   4.078   6.386
  139POPC   O1415984   6.966   3.935   6.295
  139POPC   O1215985   7.155   4.013   6.144
  139POPC   O1115986   6.981   4.168   6.224
  139POPC    C115987   7.014   4.245   6.107
  139POPC    HA15988   7.122   4.241   6.081
  139POPC    HB15989   6.993   4.352   6.129
  139POPC    C215990   6.933   4.206   5.980
  139POPC    HS15991   6.825   4.215   6.005
  139POPC   O2115992   6.967   4.073   5.937
  139POPC   C2115993   6.890   3.975   5.982
  139POPC   O2215994   6.790   3.990   6.049
  139POPC   C2215995   6.948   3.839   5.943
  139POPC   H2R15996   6.871   3.763   5.966
  139POPC   H2S15997   7.036   3.820   6.008
  139POPC    C315998   6.957   4.305   5.862
  139POPC    HX15999   6.951   4.408   5.902
  139POPC    HY16000   6.872   4.295   5.792
  139POPC   O3116001   7.085   4.289   5.795
  139POPC   C3116002   7.078   4.213   5.684
  139POPC   O3216003   6.982   4.148   5.649
  139POPC   C3216004   7.207   4.229   5.605
  139POPC   H2X16005   7.289   4.177   5.660
  139POPC   H2Y16006   7.230   4.337   5.598
  139POPC   C2316007   6.990   3.829   5.795
  139POPC   H3R16008   7.065   3.907   5.769
  139POPC   H3S16009   6.901   3.849   5.731
  139POPC   C2416010   7.048   3.691   5.759
  139POPC   H4R16011   6.997   3.613   5.821
  139POPC   H4S16012   7.156   3.690   5.785
  139POPC   C2516013   7.029   3.652   5.612
  139POPC   H5R16014   6.923   3.625   5.596
  139POPC   H5S16015   7.090   3.561   5.589
  139POPC   C2616016   7.066   3.763   5.512
  139POPC   H6R16017   7.173   3.789   5.521
  139POPC   H6S16018   7.007   3.854   5.536
  139POPC   C2716019   7.035   3.721   5.367
  139POPC   H7R16020   6.933   3.679   5.361
  139POPC   H7S16021   7.105   3.640   5.338
  139POPC   C2816022   7.049   3.836   5.266
  139POPC   H8R16023   7.035   3.795   5.164
  139POPC   H8S16024   7.154   3.872   5.272
  139POPC   C2916025   6.952   3.950   5.290
  139POPC   H9116026   6.894   3.945   5.383
  139POPC  C21016027   6.932   4.053   5.206
  139POPC  H10116028   6.857   4.130   5.231
  139POPC  C21116029   7.002   4.072   5.074
  139POPC  H11R16030   7.095   4.011   5.069
  139POPC  H11S16031   7.032   4.178   5.062
  139POPC  C21216032   6.914   4.031   4.956
  139POPC  H12R16033   6.817   4.084   4.960
  139POPC  H12S16034   6.892   3.922   4.959
  139POPC  C21316035   6.980   4.064   4.822
  139POPC  H13R16036   7.062   3.991   4.804
  139POPC  H13S16037   7.025   4.166   4.827
  139POPC  C21416038   6.880   4.062   4.705
  139POPC  H14R16039   6.820   4.155   4.711
  139POPC  H14S16040   6.811   3.976   4.715
  139POPC  C21516041   6.950   4.056   4.569
  139POPC  H15R16042   7.033   4.129   4.571
  139POPC  H15S16043   6.880   4.089   4.489
  139POPC  C21616044   7.004   3.917   4.534
  139POPC  H16R16045   7.060   3.875   4.620
  139POPC  H16S16046   7.076   3.924   4.450
  139POPC  C21716047   6.895   3.819   4.490
  139POPC  H17R16048   6.839   3.864   4.406
  139POPC  H17S16049   6.825   3.805   4.575
  139POPC  C21816050   6.951   3.683   4.448
  139POPC  H18R16051   7.006   3.636   4.532
  139POPC  H18S16052   7.022   3.696   4.362
  139POPC  H18T16053   6.870   3.615   4.416
  139POPC   C3316054   7.194   4.170   5.462
  139POPC   H3X16055   7.105   4.213   5.411
  139POPC   H3Y16056   7.178   4.060   5.468
  139POPC   C3416057   7.318   4.199   5.377
  139POPC   H4X16058   7.407   4.163   5.432
  139POPC   H4Y16059   7.327   4.309   5.364
  139POPC   C3516060   7.314   4.134   5.238
  139POPC   H5X16061   7.275   4.208   5.165
  139POPC   H5Y16062   7.243   4.049   5.240
  139POPC   C3616063   7.451   4.079   5.194
  139POPC   H6X16064   7.487   4.007   5.270
  139POPC   H6Y16065   7.523   4.164   5.193
  139POPC   C3716066   7.450   4.009   5.056
  139POPC   H7X16067   7.405   3.908   5.067
  139POPC   H7Y16068   7.556   3.994   5.024
  139POPC   C3816069   7.374   4.084   4.946
  139POPC   H8X16070   7.395   4.193   4.953
  139POPC   H8Y16071   7.265   4.072   4.964
  139POPC   C3916072   7.405   4.034   4.803
  139POPC   H9X16073   7.391   3.924   4.803
  139POPC   H9Y16074   7.511   4.054   4.777
  139POPC  C31016075   7.311   4.094   4.697
  139POPC  H10X16076   7.224   4.140   4.748
  139POPC  H10Y16077   7.273   4.012   4.633
  139POPC  C31116078   7.373   4.201   4.605
  139POPC  H11X16079   7.458   4.158   4.548
  139POPC  H11Y16080   7.411   4.285   4.668
  139POPC  C31216081   7.272   4.267   4.509
  139POPC  H12X16082   7.316   4.361   4.470
  139POPC  H12Y16083   7.181   4.295   4.567
  139POPC  C31316084   7.234   4.176   4.391
  139POPC  H13X16085   7.208   4.076   4.432
  139POPC  H13Y16086   7.323   4.161   4.326
  139POPC  C31416087   7.115   4.231   4.311
  139POPC  H14X16088   7.147   4.317   4.248
  139POPC  H14Y16089   7.039   4.269   4.383
  139POPC  C31516090   7.047   4.129   4.220
  139POPC  H15X16091   6.953   4.176   4.183
  139POPC  H15Y16092   7.018   4.039   4.278
  139POPC  C31616093   7.128   4.088   4.097
  139POPC  H16X16094   7.147   4.177   4.034
  139POPC  H16Y16095   7.073   4.014   4.035
  139POPC  H16Z16096   7.225   4.043   4.127
  140POPC     N16097   0.665   5.444   6.114
  140POPC   C1216098   0.753   5.322   6.140
  140POPC  H12A16099   0.852   5.340   6.101
  140POPC  H12B16100   0.714   5.238   6.085
  140POPC   C1316101   0.529   5.425   6.176
  140POPC  H13A16102   0.480   5.338   6.137
  140POPC  H13B16103   0.541   5.406   6.282
  140POPC  H13C16104   0.464   5.509   6.160
  140POPC   C1416105   0.727   5.567   6.172
  140POPC  H14A16106   0.663   5.653   6.159
  140POPC  H14B16107   0.740   5.555   6.279
  140POPC  H14C16108   0.824   5.586   6.130
  140POPC   C1516109   0.645   5.461   5.967
  140POPC  H15A16110   0.737   5.491   5.918
  140POPC  H15B16111   0.568   5.535   5.949
  140POPC  H15C16112   0.613   5.368   5.922
  140POPC   C1116113   0.770   5.271   6.286
  140POPC  H11A16114   0.815   5.354   6.345
  140POPC  H11B16115   0.845   5.189   6.286
  140POPC     P16116   0.581   5.089   6.300
  140POPC   O1316117   0.435   5.108   6.286
  140POPC   O1416118   0.625   4.980   6.388
  140POPC   O1216119   0.647   5.228   6.346
  140POPC   O1116120   0.643   5.066   6.156
  140POPC    C116121   0.563   5.082   6.039
  140POPC    HA16122   0.515   5.183   6.034
  140POPC    HB16123   0.482   5.006   6.039
  140POPC    C216124   0.649   5.062   5.912
  140POPC    HS16125   0.705   4.967   5.930
  140POPC   O2116126   0.737   5.175   5.888
  140POPC   C2116127   0.849   5.142   5.825
  140POPC   O2216128   0.901   5.032   5.828
  140POPC   C2216129   0.899   5.256   5.737
  140POPC   H2R16130   1.009   5.241   5.727
  140POPC   H2S16131   0.881   5.354   5.787
  140POPC    C316132   0.557   5.042   5.788
  140POPC    HX16133   0.461   5.000   5.826
  140POPC    HY16134   0.603   4.969   5.719
  140POPC   O3116135   0.531   5.168   5.722
  140POPC   C3116136   0.439   5.159   5.626
  140POPC   O3216137   0.377   5.058   5.598
  140POPC   C3216138   0.425   5.296   5.560
  140POPC   H2X16139   0.511   5.359   5.593
  140POPC   H2Y16140   0.331   5.343   5.597
  140POPC   C2316141   0.837   5.253   5.595
  140POPC   H3R16142   0.904   5.310   5.527
  140POPC   H3S16143   0.738   5.304   5.595
  140POPC   C2416144   0.819   5.111   5.540
  140POPC   H4R16145   0.731   5.063   5.587
  140POPC   H4S16146   0.908   5.050   5.566
  140POPC   C2516147   0.802   5.103   5.389
  140POPC   H5R16148   0.898   5.135   5.341
  140POPC   H5S16149   0.722   5.172   5.355
  140POPC   C2616150   0.769   4.960   5.344
  140POPC   H6R16151   0.668   4.930   5.381
  140POPC   H6S16152   0.842   4.890   5.390
  140POPC   C2716153   0.777   4.946   5.192
  140POPC   H7R16154   0.796   4.841   5.159
  140POPC   H7S16155   0.867   5.003   5.161
  140POPC   C2816156   0.655   5.005   5.119
  140POPC   H8R16157   0.681   5.011   5.011
  140POPC   H8S16158   0.649   5.109   5.157
  140POPC   C2916159   0.519   4.944   5.141
  140POPC   H9116160   0.491   4.927   5.246
  140POPC  C21016161   0.432   4.910   5.044
  140POPC  H10116162   0.335   4.865   5.072
  140POPC  C21116163   0.456   4.926   4.896
  140POPC  H11R16164   0.380   4.870   4.838
  140POPC  H11S16165   0.554   4.881   4.870
  140POPC  C21216166   0.456   5.073   4.847
  140POPC  H12R16167   0.524   5.135   4.909
  140POPC  H12S16168   0.353   5.114   4.859
  140POPC  C21316169   0.498   5.086   4.700
  140POPC  H13R16170   0.473   5.187   4.664
  140POPC  H13S16171   0.438   5.013   4.641
  140POPC  C21416172   0.648   5.060   4.675
  140POPC  H14R16173   0.677   4.958   4.710
  140POPC  H14S16174   0.706   5.134   4.733
  140POPC  C21516175   0.685   5.073   4.526
  140POPC  H15R16176   0.795   5.083   4.516
  140POPC  H15S16177   0.638   5.166   4.488
  140POPC  C21616178   0.638   4.954   4.441
  140POPC  H16R16179   0.529   4.940   4.457
  140POPC  H16S16180   0.690   4.862   4.475
  140POPC  C21716181   0.659   4.972   4.290
  140POPC  H17R16182   0.646   4.873   4.242
  140POPC  H17S16183   0.764   5.005   4.271
  140POPC  C21816184   0.560   5.069   4.226
  140POPC  H18R16185   0.456   5.040   4.249
  140POPC  H18S16186   0.573   5.067   4.116
  140POPC  H18T16187   0.576   5.173   4.262
  140POPC   C3316188   0.425   5.289   5.406
  140POPC   H3X16189   0.324   5.261   5.371
  140POPC   H3Y16190   0.496   5.211   5.370
  140POPC   C3416191   0.467   5.424   5.347
  140POPC   H4X16192   0.575   5.441   5.367
  140POPC   H4Y16193   0.411   5.503   5.402
  140POPC   C3516194   0.439   5.440   5.197
  140POPC   H5X16195   0.466   5.543   5.165
  140POPC   H5Y16196   0.330   5.429   5.180
  140POPC   C3616197   0.513   5.339   5.109
  140POPC   H6X16198   0.469   5.343   5.007
  140POPC   H6Y16199   0.489   5.238   5.147
  140POPC   C3716200   0.666   5.360   5.103
  140POPC   H7X16201   0.710   5.269   5.056
  140POPC   H7Y16202   0.709   5.369   5.205
  140POPC   C3816203   0.714   5.475   5.013
  140POPC   H8X16204   0.825   5.472   5.007
  140POPC   H8Y16205   0.684   5.573   5.055
  140POPC   C3916206   0.655   5.457   4.873
  140POPC   H9X16207   0.553   5.500   4.873
  140POPC   H9Y16208   0.645   5.348   4.854
  140POPC  C31016209   0.731   5.515   4.754
  140POPC  H10X16210   0.841   5.500   4.766
  140POPC  H10Y16211   0.711   5.624   4.747
  140POPC  C31116212   0.683   5.443   4.628
  140POPC  H11X16213   0.580   5.406   4.646
  140POPC  H11Y16214   0.746   5.353   4.611
  140POPC  C31216215   0.677   5.527   4.500
  140POPC  H12X16216   0.780   5.556   4.471
  140POPC  H12Y16217   0.618   5.620   4.518
  140POPC  C31316218   0.609   5.446   4.389
  140POPC  H13X16219   0.501   5.435   4.413
  140POPC  H13Y16220   0.650   5.342   4.391
  140POPC  C31416221   0.629   5.501   4.248
  140POPC  H14X16222   0.592   5.606   4.243
  140POPC  H14Y16223   0.566   5.441   4.178
  140POPC  C31516224   0.774   5.495   4.199
  140POPC  H15X16225   0.835   5.569   4.256
  140POPC  H15Y16226   0.775   5.528   4.093
  140POPC  C31616227   0.839   5.357   4.210
  140POPC  H16X16228   0.778   5.281   4.157
  140POPC  H16Y16229   0.849   5.326   4.316
  140POPC  H16Z16230   0.941   5.358   4.165
  141POPC     N16231   2.164   7.110   6.369
  141POPC   C1216232   2.140   7.208   6.254
  141POPC  H12A16233   2.233   7.220   6.201
  141POPC  H12B16234   2.110   7.304   6.293
  141POPC   C1316235   2.032   7.068   6.424
  141POPC  H13A16236   1.979   7.153   6.464
  141POPC  H13B16237   1.973   7.025   6.345
  141POPC  H13C16238   2.043   6.995   6.503
  141POPC   C1416239   2.236   6.991   6.312
  141POPC  H14A16240   2.262   6.913   6.382
  141POPC  H14B16241   2.177   6.948   6.232
  141POPC  H14C16242   2.327   7.021   6.261
  141POPC   C1516243   2.251   7.170   6.475
  141POPC  H15A16244   2.279   7.095   6.547
  141POPC  H15B16245   2.199   7.250   6.526
  141POPC  H15C16246   2.343   7.206   6.432
  141POPC   C1116247   2.038   7.165   6.145
  141POPC  H11A16248   2.025   7.248   6.072
  141POPC  H11B16249   1.937   7.149   6.189
  141POPC     P16250   2.200   7.060   5.977
  141POPC   O1316251   2.314   7.121   6.051
  141POPC   O1416252   2.153   7.131   5.857
  141POPC   O1216253   2.080   7.045   6.081
  141POPC   O1116254   2.237   6.911   5.943
  141POPC    C116255   2.182   6.792   5.996
  141POPC    HA16256   2.078   6.808   6.033
  141POPC    HB16257   2.246   6.760   6.081
  141POPC    C216258   2.179   6.674   5.893
  141POPC    HS16259   2.176   6.579   5.952
  141POPC   O2116260   2.296   6.677   5.810
  141POPC   C2116261   2.321   6.567   5.740
  141POPC   O2216262   2.287   6.454   5.772
  141POPC   C2216263   2.395   6.609   5.613
  141POPC   H2R16264   2.491   6.653   5.646
  141POPC   H2S16265   2.335   6.691   5.567
  141POPC    C316266   2.052   6.678   5.804
  141POPC    HX16267   1.962   6.668   5.869
  141POPC    HY16268   2.054   6.592   5.734
  141POPC   O3116269   2.044   6.804   5.735
  141POPC   C3116270   1.952   6.807   5.639
  141POPC   O3216271   1.889   6.711   5.600
  141POPC   C3216272   1.939   6.950   5.589
  141POPC   H2X16273   2.041   6.984   5.559
  141POPC   H2Y16274   1.906   7.013   5.674
  141POPC   C2316275   2.423   6.501   5.505
  141POPC   H3R16276   2.484   6.548   5.425
  141POPC   H3S16277   2.484   6.419   5.550
  141POPC   C2416278   2.300   6.438   5.437
  141POPC   H4R16279   2.244   6.382   5.515
  141POPC   H4S16280   2.334   6.364   5.362
  141POPC   C2516281   2.200   6.533   5.368
  141POPC   H5R16282   2.188   6.628   5.423
  141POPC   H5S16283   2.101   6.482   5.372
  141POPC   C2616284   2.227   6.562   5.218
  141POPC   H6R16285   2.261   6.470   5.166
  141POPC   H6S16286   2.307   6.638   5.209
  141POPC   C2716287   2.099   6.613   5.149
  141POPC   H7R16288   2.035   6.654   5.229
  141POPC   H7S16289   2.045   6.526   5.105
  141POPC   C2816290   2.112   6.729   5.047
  141POPC   H8R16291   2.165   6.810   5.099
  141POPC   H8S16292   2.010   6.770   5.031
  141POPC   C2916293   2.175   6.711   4.911
  141POPC   H9116294   2.246   6.792   4.888
  141POPC  C21016295   2.157   6.618   4.814
  141POPC  H10116296   2.216   6.631   4.722
  141POPC  C21116297   2.066   6.498   4.810
  141POPC  H11R16298   2.040   6.463   4.912
  141POPC  H11S16299   2.117   6.414   4.760
  141POPC  C21216300   1.935   6.529   4.735
  141POPC  H12R16301   1.886   6.616   4.785
  141POPC  H12S16302   1.865   6.443   4.746
  141POPC  C21316303   1.952   6.562   4.586
  141POPC  H13R16304   1.963   6.467   4.529
  141POPC  H13S16305   2.045   6.621   4.572
  141POPC  C21416306   1.836   6.645   4.529
  141POPC  H14R16307   1.739   6.593   4.544
  141POPC  H14S16308   1.853   6.653   4.419
  141POPC  C21516309   1.829   6.787   4.587
  141POPC  H15R16310   1.932   6.822   4.613
  141POPC  H15S16311   1.771   6.786   4.682
  141POPC  C21616312   1.765   6.884   4.490
  141POPC  H16R16313   1.658   6.855   4.478
  141POPC  H16S16314   1.812   6.875   4.389
  141POPC  C21716315   1.767   7.031   4.532
  141POPC  H17R16316   1.872   7.068   4.528
  141POPC  H17S16317   1.732   7.042   4.636
  141POPC  C21816318   1.677   7.112   4.440
  141POPC  H18R16319   1.570   7.087   4.458
  141POPC  H18S16320   1.700   7.090   4.333
  141POPC  H18T16321   1.689   7.222   4.455
  141POPC   C3316322   1.840   6.963   5.472
  141POPC   H3X16323   1.875   6.903   5.385
  141POPC   H3Y16324   1.741   6.923   5.503
  141POPC   C3416325   1.821   7.109   5.430
  141POPC   H4X16326   1.780   7.165   5.516
  141POPC   H4Y16327   1.746   7.114   5.348
  141POPC   C3516328   1.951   7.178   5.385
  141POPC   H5X16329   2.028   7.173   5.465
  141POPC   H5Y16330   1.928   7.285   5.370
  141POPC   C3616331   2.012   7.123   5.256
  141POPC   H6X16332   1.930   7.107   5.183
  141POPC   H6Y16333   2.060   7.024   5.274
  141POPC   C3716334   2.113   7.222   5.198
  141POPC   H7X16335   2.203   7.226   5.264
  141POPC   H7Y16336   2.068   7.323   5.201
  141POPC   C3816337   2.154   7.192   5.053
  141POPC   H8X16338   2.066   7.156   4.996
  141POPC   H8Y16339   2.229   7.109   5.055
  141POPC   C3916340   2.210   7.316   4.983
  141POPC   H9X16341   2.294   7.355   5.044
  141POPC   H9Y16342   2.134   7.397   4.981
  141POPC  C31016343   2.259   7.291   4.839
  141POPC  H10X16344   2.311   7.384   4.805
  141POPC  H10Y16345   2.173   7.275   4.771
  141POPC  C31116346   2.356   7.173   4.828
  141POPC  H11X16347   2.299   7.077   4.828
  141POPC  H11Y16348   2.420   7.173   4.919
  141POPC  C31216349   2.449   7.180   4.706
  141POPC  H12X16350   2.538   7.118   4.729
  141POPC  H12Y16351   2.484   7.284   4.692
  141POPC  C31316352   2.387   7.126   4.576
  141POPC  H13X16353   2.301   7.189   4.545
  141POPC  H13Y16354   2.349   7.024   4.596
  141POPC  C31416355   2.493   7.119   4.465
  141POPC  H14X16356   2.586   7.080   4.509
  141POPC  H14Y16357   2.515   7.222   4.427
  141POPC  C31516358   2.455   7.027   4.348
  141POPC  H15X16359   2.406   6.935   4.389
  141POPC  H15Y16360   2.548   6.994   4.297
  141POPC  C31616361   2.365   7.092   4.244
  141POPC  H16X16362   2.423   7.169   4.189
  141POPC  H16Y16363   2.278   7.141   4.292
  141POPC  H16Z16364   2.327   7.017   4.171
  142POPC     N16365   5.224   7.074   6.087
  142POPC   C1216366   5.338   7.174   6.076
  142POPC  H12A16367   5.306   7.257   6.015
  142POPC  H12B16368   5.422   7.128   6.026
  142POPC   C1316369   5.095   7.147   6.109
  142POPC  H13A16370   5.014   7.075   6.120
  142POPC  H13B16371   5.103   7.206   6.199
  142POPC  H13C16372   5.075   7.215   6.028
  142POPC   C1416373   5.208   6.988   5.965
  142POPC  H14A16374   5.125   6.920   5.981
  142POPC  H14B16375   5.187   7.046   5.877
  142POPC  H14C16376   5.294   6.926   5.948
  142POPC   C1516377   5.243   6.982   6.204
  142POPC  H15A16378   5.333   6.923   6.194
  142POPC  H15B16379   5.158   6.915   6.211
  142POPC  H15C16380   5.248   7.040   6.295
  142POPC   C1116381   5.390   7.235   6.210
  142POPC  H11A16382   5.469   7.309   6.186
  142POPC  H11B16383   5.440   7.155   6.269
  142POPC     P16384   5.237   7.440   6.260
  142POPC   O1316385   5.308   7.529   6.355
  142POPC   O1416386   5.089   7.445   6.267
  142POPC   O1216387   5.284   7.291   6.288
  142POPC   O1116388   5.281   7.464   6.111
  142POPC    C116389   5.234   7.575   6.034
  142POPC    HA16390   5.314   7.651   6.024
  142POPC    HB16391   5.147   7.626   6.081
  142POPC    C216392   5.186   7.537   5.890
  142POPC    HS16393   5.127   7.623   5.853
  142POPC   O2116394   5.108   7.414   5.894
  142POPC   C2116395   5.013   7.408   5.800
  142POPC   O2216396   4.969   7.502   5.738
  142POPC   C2216397   4.967   7.263   5.786
  142POPC   H2R16398   4.888   7.246   5.862
  142POPC   H2S16399   5.053   7.195   5.806
  142POPC    C316400   5.305   7.520   5.790
  142POPC    HX16401   5.371   7.438   5.827
  142POPC    HY16402   5.365   7.614   5.789
  142POPC   O3116403   5.254   7.491   5.659
  142POPC   C3116404   5.343   7.466   5.564
  142POPC   O3216405   5.463   7.457   5.580
  142POPC   C3216406   5.267   7.438   5.433
  142POPC   H2X16407   5.168   7.488   5.442
  142POPC   H2Y16408   5.254   7.328   5.425
  142POPC   C2316409   4.908   7.232   5.646
  142POPC   H3R16410   4.832   7.309   5.620
  142POPC   H3S16411   4.855   7.134   5.650
  142POPC   C2416412   5.012   7.223   5.535
  142POPC   H4R16413   5.091   7.148   5.559
  142POPC   H4S16414   5.059   7.323   5.527
  142POPC   C2516415   4.947   7.188   5.400
  142POPC   H5R16416   4.864   7.261   5.391
  142POPC   H5S16417   4.902   7.086   5.402
  142POPC   C2616418   5.034   7.207   5.275
  142POPC   H6R16419   5.096   7.298   5.286
  142POPC   H6S16420   4.965   7.228   5.190
  142POPC   C2716421   5.121   7.088   5.231
  142POPC   H7R16422   5.055   7.003   5.205
  142POPC   H7S16423   5.188   7.056   5.314
  142POPC   C2816424   5.206   7.130   5.109
  142POPC   H8R16425   5.286   7.197   5.147
  142POPC   H8S16426   5.137   7.193   5.049
  142POPC   C2916427   5.269   7.028   5.018
  142POPC   H9116428   5.333   6.952   5.067
  142POPC  C21016429   5.258   7.027   4.884
  142POPC  H10116430   5.308   6.948   4.825
  142POPC  C21116431   5.180   7.128   4.804
  142POPC  H11R16432   5.210   7.232   4.830
  142POPC  H11S16433   5.073   7.124   4.834
  142POPC  C21216434   5.185   7.113   4.652
  142POPC  H12R16435   5.185   7.006   4.622
  142POPC  H12S16436   5.280   7.158   4.616
  142POPC  C21316437   5.066   7.181   4.582
  142POPC  H13R16438   4.978   7.114   4.583
  142POPC  H13S16439   5.093   7.196   4.475
  142POPC  C21416440   5.025   7.314   4.648
  142POPC  H14R16441   5.115   7.373   4.675
  142POPC  H14S16442   4.969   7.293   4.741
  142POPC  C21516443   4.937   7.402   4.558
  142POPC  H15R16444   4.896   7.485   4.618
  142POPC  H15S16445   4.852   7.340   4.521
  142POPC  C21616446   5.013   7.458   4.438
  142POPC  H16R16447   4.947   7.459   4.349
  142POPC  H16S16448   5.099   7.392   4.414
  142POPC  C21716449   5.066   7.599   4.459
  142POPC  H17R16450   5.129   7.603   4.551
  142POPC  H17S16451   4.980   7.668   4.475
  142POPC  C21816452   5.146   7.647   4.339
  142POPC  H18R16453   5.087   7.637   4.246
  142POPC  H18S16454   5.240   7.588   4.327
  142POPC  H18T16455   5.173   7.754   4.352
  142POPC   C3316456   5.337   7.490   5.305
  142POPC   H3X16457   5.407   7.414   5.265
  142POPC   H3Y16458   5.397   7.578   5.336
  142POPC   C3416459   5.239   7.540   5.196
  142POPC   H4X16460   5.249   7.650   5.186
  142POPC   H4Y16461   5.135   7.521   5.231
  142POPC   C3516462   5.252   7.480   5.055
  142POPC   H5X16463   5.180   7.532   4.988
  142POPC   H5Y16464   5.219   7.374   5.060
  142POPC   C3616465   5.390   7.487   4.990
  142POPC   H6X16466   5.468   7.443   5.056
  142POPC   H6Y16467   5.415   7.593   4.972
  142POPC   C3716468   5.393   7.412   4.856
  142POPC   H7X16469   5.299   7.435   4.802
  142POPC   H7Y16470   5.395   7.303   4.878
  142POPC   C3816471   5.512   7.446   4.766
  142POPC   H8X16472   5.605   7.420   4.820
  142POPC   H8Y16473   5.514   7.555   4.746
  142POPC   C3916474   5.506   7.369   4.633
  142POPC   H9X16475   5.484   7.262   4.656
  142POPC   H9Y16476   5.606   7.373   4.585
  142POPC  C31016477   5.400   7.422   4.535
  142POPC  H10X16478   5.420   7.529   4.514
  142POPC  H10Y16479   5.300   7.416   4.584
  142POPC  C31116480   5.393   7.345   4.403
  142POPC  H11X16481   5.302   7.376   4.347
  142POPC  H11Y16482   5.381   7.236   4.423
  142POPC  C31216483   5.514   7.372   4.312
  142POPC  H12X16484   5.603   7.398   4.374
  142POPC  H12Y16485   5.487   7.459   4.250
  142POPC  C31316486   5.554   7.258   4.218
  142POPC  H13X16487   5.566   7.166   4.279
  142POPC  H13Y16488   5.652   7.279   4.170
  142POPC  C31416489   5.449   7.232   4.110
  142POPC  H14X16490   5.349   7.251   4.155
  142POPC  H14Y16491   5.453   7.124   4.082
  142POPC  C31516492   5.463   7.315   3.981
  142POPC  H15X16493   5.497   7.418   4.004
  142POPC  H15Y16494   5.364   7.329   3.934
  142POPC  C31616495   5.553   7.248   3.878
  142POPC  H16X16496   5.571   7.316   3.792
  142POPC  H16Y16497   5.507   7.154   3.840
  142POPC  H16Z16498   5.651   7.221   3.925
  143POPC     N16499   7.304   5.267   6.327
  143POPC   C1216500   7.443   5.209   6.304
  143POPC  H12A16501   7.433   5.104   6.283
  143POPC  H12B16502   7.501   5.219   6.394
  143POPC   C1316503   7.313   5.389   6.413
  143POPC  H13A16504   7.345   5.364   6.513
  143POPC  H13B16505   7.383   5.460   6.371
  143POPC  H13C16506   7.217   5.440   6.420
  143POPC   C1416507   7.247   5.310   6.197
  143POPC  H14A16508   7.311   5.388   6.157
  143POPC  H14B16509   7.251   5.229   6.125
  143POPC  H14C16510   7.146   5.346   6.208
  143POPC   C1516511   7.210   5.167   6.387
  143POPC  H15A16512   7.237   5.143   6.488
  143POPC  H15B16513   7.207   5.076   6.328
  143POPC  H15C16514   7.109   5.206   6.387
  143POPC   C1116515   7.526   5.271   6.187
  143POPC  H11A16516   7.494   5.225   6.091
  143POPC  H11B16517   7.633   5.243   6.198
  143POPC     P16518   7.613   5.520   6.201
  143POPC   O1316519   7.748   5.458   6.208
  143POPC   O1416520   7.571   5.593   6.322
  143POPC   O1216521   7.506   5.410   6.177
  143POPC   O1116522   7.593   5.607   6.070
  143POPC    C116523   7.466   5.665   6.037
  143POPC    HA16524   7.478   5.776   6.032
  143POPC    HB16525   7.390   5.648   6.117
  143POPC    C216526   7.399   5.618   5.903
  143POPC    HS16527   7.292   5.604   5.927
  143POPC   O2116528   7.459   5.495   5.854
  143POPC   C2116529   7.379   5.429   5.770
  143POPC   O2216530   7.267   5.464   5.738
  143POPC   C2216531   7.440   5.295   5.728
  143POPC   H2R16532   7.358   5.220   5.729
  143POPC   H2S16533   7.515   5.267   5.805
  143POPC    C316534   7.407   5.730   5.794
  143POPC    HX16535   7.367   5.824   5.836
  143POPC    HY16536   7.339   5.701   5.711
  143POPC   O3116537   7.543   5.750   5.753
  143POPC   C3116538   7.563   5.764   5.623
  143POPC   O3216539   7.477   5.781   5.539
  143POPC   C3216540   7.711   5.750   5.593
  143POPC   H2X16541   7.768   5.789   5.680
  143POPC   H2Y16542   7.731   5.814   5.504
  143POPC   C2316543   7.505   5.291   5.587
  143POPC   H3R16544   7.566   5.198   5.582
  143POPC   H3S16545   7.574   5.376   5.575
  143POPC   C2416546   7.406   5.284   5.469
  143POPC   H4R16547   7.331   5.204   5.485
  143POPC   H4S16548   7.464   5.257   5.379
  143POPC   C2516549   7.333   5.416   5.442
  143POPC   H5R16550   7.393   5.502   5.478
  143POPC   H5S16551   7.237   5.417   5.498
  143POPC   C2616552   7.301   5.439   5.293
  143POPC   H6R16553   7.248   5.350   5.254
  143POPC   H6S16554   7.395   5.449   5.234
  143POPC   C2716555   7.212   5.562   5.273
  143POPC   H7R16556   7.128   5.553   5.345
  143POPC   H7S16557   7.169   5.559   5.171
  143POPC   C2816558   7.275   5.700   5.300
  143POPC   H8R16559   7.290   5.708   5.409
  143POPC   H8S16560   7.203   5.779   5.272
  143POPC   C2916561   7.406   5.722   5.229
  143POPC   H9116562   7.490   5.748   5.294
  143POPC  C21016563   7.426   5.714   5.097
  143POPC  H10116564   7.528   5.729   5.060
  143POPC  C21116565   7.321   5.682   4.992
  143POPC  H11R16566   7.219   5.703   5.028
  143POPC  H11S16567   7.326   5.573   4.970
  143POPC  C21216568   7.338   5.757   4.859
  143POPC  H12R16569   7.297   5.860   4.869
  143POPC  H12S16570   7.278   5.706   4.781
  143POPC  C21316571   7.483   5.767   4.815
  143POPC  H13R16572   7.532   5.667   4.821
  143POPC  H13S16573   7.537   5.836   4.884
  143POPC  C21416574   7.503   5.822   4.675
  143POPC  H14R16575   7.439   5.911   4.658
  143POPC  H14S16576   7.472   5.745   4.601
  143POPC  C21516577   7.650   5.858   4.658
  143POPC  H15R16578   7.709   5.812   4.740
  143POPC  H15S16579   7.664   5.968   4.670
  143POPC  C21616580   7.705   5.812   4.524
  143POPC  H16R16581   7.678   5.705   4.507
  143POPC  H16S16582   7.816   5.819   4.525
  143POPC  C21716583   7.648   5.901   4.416
  143POPC  H17R16584   7.662   6.006   4.449
  143POPC  H17S16585   7.538   5.883   4.406
  143POPC  C21816586   7.714   5.884   4.281
  143POPC  H18R16587   7.824   5.882   4.291
  143POPC  H18S16588   7.688   5.971   4.216
  143POPC  H18T16589   7.679   5.791   4.233
  143POPC   C3316590   7.747   5.602   5.565
  143POPC   H3X16591   7.704   5.536   5.644
  143POPC   H3Y16592   7.857   5.590   5.569
  143POPC   C3416593   7.703   5.557   5.426
  143POPC   H4X16594   7.725   5.638   5.353
  143POPC   H4Y16595   7.592   5.544   5.424
  143POPC   C3516596   7.771   5.427   5.380
  143POPC   H5X16597   7.759   5.348   5.456
  143POPC   H5Y16598   7.880   5.446   5.367
  143POPC   C3616599   7.711   5.380   5.248
  143POPC   H6X16600   7.718   5.464   5.175
  143POPC   H6Y16601   7.602   5.361   5.262
  143POPC   C3716602   7.775   5.256   5.185
  143POPC   H7X16603   7.739   5.165   5.238
  143POPC   H7Y16604   7.886   5.260   5.196
  143POPC   C3816605   7.743   5.245   5.035
  143POPC   H8X16606   7.779   5.147   4.995
  143POPC   H8Y16607   7.799   5.324   4.982
  143POPC   C3916608   7.594   5.264   5.003
  143POPC   H9X16609   7.560   5.362   5.045
  143POPC   H9Y16610   7.533   5.185   5.052
  143POPC  C31016611   7.563   5.270   4.853
  143POPC  H10X16612   7.546   5.169   4.812
  143POPC  H10Y16613   7.651   5.312   4.799
  143POPC  C31116614   7.442   5.359   4.824
  143POPC  H11X16615   7.467   5.464   4.848
  143POPC  H11Y16616   7.358   5.328   4.890
  143POPC  C31216617   7.395   5.350   4.679
  143POPC  H12X16618   7.297   5.402   4.673
  143POPC  H12Y16619   7.378   5.243   4.652
  143POPC  C31316620   7.492   5.411   4.578
  143POPC  H13X16621   7.592   5.364   4.590
  143POPC  H13Y16622   7.503   5.519   4.599
  143POPC  C31416623   7.446   5.391   4.432
  143POPC  H14X16624   7.456   5.284   4.406
  143POPC  H14Y16625   7.515   5.448   4.366
  143POPC  C31516626   7.302   5.435   4.404
  143POPC  H15X16627   7.232   5.370   4.460
  143POPC  H15Y16628   7.281   5.418   4.296
  143POPC  C31616629   7.273   5.582   4.438
  143POPC  H16X16630   7.167   5.606   4.413
  143POPC  H16Y16631   7.340   5.649   4.381
  143POPC  H16Z16632   7.288   5.601   4.546
  144POPC     N16633   1.020   6.541   6.156
  144POPC   C1216634   0.905   6.540   6.057
  144POPC  H12A16635   0.939   6.491   5.967
  144POPC  H12B16636   0.881   6.641   6.027
  144POPC   C1316637   0.993   6.642   6.263
  144POPC  H13A16638   0.894   6.625   6.304
  144POPC  H13B16639   1.067   6.638   6.341
  144POPC  H13C16640   0.993   6.742   6.221
  144POPC   C1416641   1.035   6.405   6.218
  144POPC  H14A16642   1.120   6.400   6.284
  144POPC  H14B16643   0.945   6.380   6.273
  144POPC  H14C16644   1.045   6.328   6.143
  144POPC   C1516645   1.147   6.576   6.084
  144POPC  H15A16646   1.171   6.501   6.011
  144POPC  H15B16647   1.232   6.583   6.150
  144POPC  H15C16648   1.139   6.667   6.028
  144POPC   C1116649   0.773   6.470   6.101
  144POPC  H11A16650   0.794   6.364   6.124
  144POPC  H11B16651   0.706   6.468   6.013
  144POPC     P16652   0.605   6.647   6.195
  144POPC   O1316653   0.521   6.656   6.317
  144POPC   O1416654   0.537   6.629   6.066
  144POPC   O1216655   0.711   6.531   6.216
  144POPC   O1116656   0.698   6.774   6.195
  144POPC    C116657   0.652   6.896   6.136
  144POPC    HA16658   0.653   6.977   6.212
  144POPC    HB16659   0.548   6.892   6.095
  144POPC    C216660   0.746   6.937   6.021
  144POPC    HS16661   0.716   7.037   5.985
  144POPC   O2116662   0.742   6.838   5.916
  144POPC   C2116663   0.649   6.864   5.823
  144POPC   O2216664   0.576   6.961   5.824
  144POPC   C2216665   0.653   6.762   5.708
  144POPC   H2R16666   0.683   6.821   5.618
  144POPC   H2S16667   0.549   6.727   5.692
  144POPC    C316668   0.892   6.955   6.072
  144POPC    HX16669   0.946   6.858   6.073
  144POPC    HY16670   0.888   6.992   6.177
  144POPC   O3116671   0.956   7.055   5.991
  144POPC   C3116672   0.979   7.008   5.868
  144POPC   O3216673   1.014   6.895   5.841
  144POPC   C3216674   0.922   7.112   5.770
  144POPC   H2X16675   0.935   7.212   5.816
  144POPC   H2Y16676   0.813   7.094   5.761
  144POPC   C2316677   0.750   6.642   5.724
  144POPC   H3R16678   0.706   6.569   5.796
  144POPC   H3S16679   0.846   6.678   5.765
  144POPC   C2416680   0.779   6.572   5.589
  144POPC   H4R16681   0.837   6.645   5.528
  144POPC   H4S16682   0.683   6.557   5.535
  144POPC   C2516683   0.854   6.436   5.594
  144POPC   H5R16684   0.881   6.405   5.491
  144POPC   H5S16685   0.782   6.361   5.632
  144POPC   C2616686   0.980   6.433   5.683
  144POPC   H6R16687   0.955   6.370   5.772
  144POPC   H6S16688   0.993   6.535   5.725
  144POPC   C2716689   1.117   6.381   5.630
  144POPC   H7R16690   1.109   6.270   5.636
  144POPC   H7S16691   1.194   6.414   5.703
  144POPC   C2816692   1.172   6.411   5.486
  144POPC   H8R16693   1.111   6.498   5.452
  144POPC   H8S16694   1.135   6.322   5.430
  144POPC   C2916695   1.320   6.432   5.449
  144POPC   H9116696   1.385   6.399   5.532
  144POPC  C21016697   1.387   6.484   5.339
  144POPC  H10116698   1.497   6.488   5.346
  144POPC  C21116699   1.339   6.544   5.205
  144POPC  H11R16700   1.229   6.556   5.216
  144POPC  H11S16701   1.357   6.471   5.123
  144POPC  C21216702   1.377   6.687   5.148
  144POPC  H12R16703   1.485   6.681   5.120
  144POPC  H12S16704   1.372   6.758   5.233
  144POPC  C21316705   1.305   6.760   5.025
  144POPC  H13R16706   1.381   6.771   4.945
  144POPC  H13S16707   1.279   6.862   5.061
  144POPC  C21416708   1.178   6.706   4.953
  144POPC  H14R16709   1.103   6.685   5.032
  144POPC  H14S16710   1.202   6.613   4.897
  144POPC  C21516711   1.093   6.790   4.855
  144POPC  H15R16712   1.096   6.898   4.882
  144POPC  H15S16713   0.988   6.757   4.868
  144POPC  C21616714   1.123   6.773   4.705
  144POPC  H16R16715   1.158   6.669   4.686
  144POPC  H16S16716   1.203   6.844   4.677
  144POPC  C21716717   0.999   6.793   4.615
  144POPC  H17R16718   0.952   6.891   4.639
  144POPC  H17S16719   0.925   6.714   4.640
  144POPC  C21816720   1.030   6.787   4.465
  144POPC  H18R16721   1.080   6.691   4.439
  144POPC  H18S16722   1.096   6.871   4.435
  144POPC  H18T16723   0.936   6.794   4.405
  144POPC   C3316724   0.986   7.105   5.631
  144POPC   H3X16725   1.094   7.082   5.640
  144POPC   H3Y16726   0.978   7.202   5.577
  144POPC   C3416727   0.922   6.997   5.545
  144POPC   H4X16728   0.897   6.907   5.605
  144POPC   H4Y16729   0.999   6.965   5.472
  144POPC   C3516730   0.802   7.038   5.462
  144POPC   H5X16731   0.815   7.141   5.422
  144POPC   H5Y16732   0.709   7.033   5.523
  144POPC   C3616733   0.796   6.939   5.346
  144POPC   H6X16734   0.807   6.839   5.392
  144POPC   H6Y16735   0.882   6.956   5.278
  144POPC   C3716736   0.669   6.934   5.264
  144POPC   H7X16737   0.667   7.014   5.187
  144POPC   H7Y16738   0.581   6.946   5.330
  144POPC   C3816739   0.664   6.798   5.194
  144POPC   H8X16740   0.670   6.718   5.270
  144POPC   H8Y16741   0.751   6.788   5.125
  144POPC   C3916742   0.535   6.785   5.117
  144POPC   H9X16743   0.539   6.851   5.028
  144POPC   H9Y16744   0.453   6.821   5.183
  144POPC  C31016745   0.502   6.642   5.077
  144POPC  H10X16746   0.392   6.633   5.071
  144POPC  H10Y16747   0.537   6.569   5.153
  144POPC  C31116748   0.557   6.608   4.939
  144POPC  H11X16749   0.660   6.569   4.946
  144POPC  H11Y16750   0.561   6.701   4.878
  144POPC  C31216751   0.464   6.509   4.868
  144POPC  H12X16752   0.365   6.557   4.855
  144POPC  H12Y16753   0.450   6.420   4.933
  144POPC  C31316754   0.517   6.466   4.732
  144POPC  H13X16755   0.440   6.402   4.683
  144POPC  H13Y16756   0.610   6.406   4.744
  144POPC  C31416757   0.545   6.585   4.640
  144POPC  H14X16758   0.629   6.645   4.680
  144POPC  H14Y16759   0.454   6.649   4.639
  144POPC  C31516760   0.577   6.543   4.497
  144POPC  H15X16761   0.560   6.629   4.430
  144POPC  H15Y16762   0.506   6.463   4.469
  144POPC  C31616763   0.720   6.493   4.479
  144POPC  H16X16764   0.733   6.455   4.375
  144POPC  H16Y16765   0.743   6.410   4.550
  144POPC  H16Z16766   0.793   6.575   4.496
  145POPC     N16767   0.518   6.112   5.992
  145POPC   C1216768   0.534   6.126   6.143
  145POPC  H12A16769   0.633   6.165   6.165
  145POPC  H12B16770   0.535   6.028   6.188
  145POPC   C1316771   0.528   6.246   5.926
  145POPC  H13A16772   0.515   6.238   5.819
  145POPC  H13B16773   0.452   6.312   5.965
  145POPC  H13C16774   0.624   6.291   5.946
  145POPC   C1416775   0.629   6.023   5.943
  145POPC  H14A16776   0.724   6.059   5.979
  145POPC  H14B16777   0.618   5.925   5.985
  145POPC  H14C16778   0.631   6.017   5.835
  145POPC   C1516779   0.385   6.051   5.961
  145POPC  H15A16780   0.366   6.039   5.856
  145POPC  H15B16781   0.306   6.111   6.005
  145POPC  H15C16782   0.371   5.956   6.011
  145POPC   C1116783   0.426   6.207   6.219
  145POPC  H11A16784   0.408   6.304   6.168
  145POPC  H11B16785   0.464   6.230   6.321
  145POPC     P16786   0.301   5.998   6.309
  145POPC   O1316787   0.178   5.993   6.391
  145POPC   O1416788   0.430   5.980   6.380
  145POPC   O1216789   0.304   6.135   6.228
  145POPC   O1116790   0.298   5.893   6.191
  145POPC    C116791   0.193   5.796   6.178
  145POPC    HA16792   0.105   5.817   6.241
  145POPC    HB16793   0.232   5.697   6.210
  145POPC    C216794   0.140   5.780   6.031
  145POPC    HS16795   0.090   5.681   6.023
  145POPC   O2116796   0.245   5.789   5.932
  145POPC   C2116797   0.329   5.688   5.932
  145POPC   O2216798   0.332   5.593   6.008
  145POPC   C2216799   0.429   5.701   5.816
  145POPC   H2R16800   0.459   5.597   5.791
  145POPC   H2S16801   0.518   5.756   5.854
  145POPC    C316802   0.032   5.889   6.001
  145POPC    HX16803  -0.042   5.883   6.083
  145POPC    HY16804  -0.019   5.860   5.906
  145POPC   O3116805   0.088   6.021   5.989
  145POPC   C3116806  -0.004   6.117   5.990
  145POPC   O3216807  -0.124   6.102   6.009
  145POPC   C3216808   0.061   6.250   5.954
  145POPC   H2X16809   0.164   6.253   5.995
  145POPC   H2Y16810   0.001   6.329   6.005
  145POPC   C2316811   0.375   5.768   5.688
  145POPC   H3R16812   0.351   5.874   5.707
  145POPC   H3S16813   0.281   5.717   5.658
  145POPC   C2416814   0.476   5.756   5.572
  145POPC   H4R16815   0.491   5.649   5.548
  145POPC   H4S16816   0.574   5.797   5.607
  145POPC   C2516817   0.436   5.832   5.444
  145POPC   H5R16818   0.517   5.820   5.369
  145POPC   H5S16819   0.428   5.940   5.468
  145POPC   C2616820   0.304   5.786   5.382
  145POPC   H6R16821   0.224   5.800   5.458
  145POPC   H6S16822   0.307   5.678   5.358
  145POPC   C2716823   0.263   5.866   5.256
  145POPC   H7R16824   0.323   5.960   5.253
  145POPC   H7S16825   0.157   5.896   5.264
  145POPC   C2816826   0.285   5.789   5.124
  145POPC   H8R16827   0.388   5.748   5.123
  145POPC   H8S16828   0.278   5.861   5.040
  145POPC   C2916829   0.183   5.679   5.109
  145POPC   H9116830   0.148   5.635   5.203
  145POPC  C21016831   0.138   5.628   4.993
  145POPC  H10116832   0.064   5.546   4.994
  145POPC  C21116833   0.181   5.670   4.856
  145POPC  H11R16834   0.196   5.780   4.850
  145POPC  H11S16835   0.103   5.643   4.782
  145POPC  C21216836   0.312   5.600   4.819
  145POPC  H12R16837   0.389   5.624   4.896
  145POPC  H12S16838   0.350   5.643   4.724
  145POPC  C21316839   0.299   5.446   4.805
  145POPC  H13R16840   0.275   5.401   4.904
  145POPC  H13S16841   0.398   5.405   4.774
  145POPC  C21416842   0.198   5.400   4.699
  145POPC  H14R16843   0.095   5.421   4.734
  145POPC  H14S16844   0.209   5.291   4.681
  145POPC  C21516845   0.221   5.480   4.571
  145POPC  H15R16846   0.331   5.490   4.558
  145POPC  H15S16847   0.178   5.581   4.587
  145POPC  C21616848   0.162   5.426   4.442
  145POPC  H16R16849   0.058   5.391   4.456
  145POPC  H16S16850   0.223   5.339   4.408
  145POPC  C21716851   0.164   5.536   4.335
  145POPC  H17R16852   0.072   5.597   4.346
  145POPC  H17S16853   0.160   5.487   4.236
  145POPC  C21816854   0.286   5.630   4.343
  145POPC  H18R16855   0.296   5.680   4.441
  145POPC  H18S16856   0.282   5.713   4.269
  145POPC  H18T16857   0.379   5.573   4.322
  145POPC   C3316858   0.059   6.275   5.801
  145POPC   H3X16859   0.081   6.382   5.784
  145POPC   H3Y16860  -0.042   6.256   5.760
  145POPC   C3416861   0.163   6.192   5.724
  145POPC   H4X16862   0.160   6.086   5.758
  145POPC   H4Y16863   0.264   6.233   5.748
  145POPC   C3516864   0.145   6.192   5.571
  145POPC   H5X16865   0.068   6.116   5.543
  145POPC   H5Y16866   0.241   6.160   5.525
  145POPC   C3616867   0.103   6.327   5.511
  145POPC   H6X16868   0.144   6.409   5.574
  145POPC   H6Y16869  -0.008   6.335   5.515
  145POPC   C3716870   0.151   6.352   5.368
  145POPC   H7X16871   0.259   6.376   5.370
  145POPC   H7Y16872   0.098   6.442   5.329
  145POPC   C3816873   0.131   6.237   5.268
  145POPC   H8X16874   0.025   6.202   5.269
  145POPC   H8Y16875   0.194   6.150   5.296
  145POPC   C3916876   0.168   6.283   5.126
  145POPC   H9X16877   0.274   6.317   5.128
  145POPC   H9Y16878   0.106   6.371   5.099
  145POPC  C31016879   0.153   6.177   5.016
  145POPC  H10X16880   0.045   6.155   5.000
  145POPC  H10Y16881   0.203   6.083   5.047
  145POPC  C31116882   0.215   6.228   4.886
  145POPC  H11X16883   0.325   6.238   4.901
  145POPC  H11Y16884   0.175   6.330   4.865
  145POPC  C31216885   0.191   6.140   4.763
  145POPC  H12X16886   0.082   6.134   4.744
  145POPC  H12Y16887   0.229   6.038   4.782
  145POPC  C31316888   0.261   6.200   4.640
  145POPC  H13X16889   0.370   6.207   4.660
  145POPC  H13Y16890   0.222   6.303   4.625
  145POPC  C31416891   0.239   6.120   4.510
  145POPC  H14X16892   0.269   6.184   4.424
  145POPC  H14Y16893   0.130   6.101   4.500
  145POPC  C31516894   0.317   5.988   4.503
  145POPC  H15X16895   0.279   5.930   4.416
  145POPC  H15Y16896   0.296   5.929   4.594
  145POPC  C31616897   0.468   6.004   4.485
  145POPC  H16X16898   0.517   5.904   4.481
  145POPC  H16Y16899   0.513   6.062   4.569
  145POPC  H16Z16900   0.491   6.057   4.390
  146POPC     N16901   0.722   0.969   6.398
  146POPC   C1216902   0.824   1.060   6.332
  146POPC  H12A16903   0.909   1.075   6.398
  146POPC  H12B16904   0.778   1.157   6.317
  146POPC   C1316905   0.700   1.003   6.542
  146POPC  H13A16906   0.792   0.996   6.599
  146POPC  H13B16907   0.658   1.102   6.553
  146POPC  H13C16908   0.631   0.933   6.587
  146POPC   C1416909   0.592   0.980   6.325
  146POPC  H14A16910   0.610   0.965   6.219
  146POPC  H14B16911   0.521   0.905   6.358
  146POPC  H14C16912   0.547   1.077   6.337
  146POPC   C1516913   0.768   0.827   6.387
  146POPC  H15A16914   0.781   0.803   6.282
  146POPC  H15B16915   0.694   0.760   6.428
  146POPC  H15C16916   0.862   0.811   6.438
  146POPC   C1116917   0.880   1.015   6.194
  146POPC  H11A16918   0.944   0.925   6.206
  146POPC  H11B16919   0.945   1.096   6.155
  146POPC     P16920   0.778   1.014   5.951
  146POPC   O1316921   0.640   1.013   5.902
  146POPC   O1416922   0.878   0.924   5.892
  146POPC   O1216923   0.772   0.985   6.106
  146POPC   O1116924   0.832   1.163   5.950
  146POPC    C116925   0.745   1.266   5.998
  146POPC    HA16926   0.737   1.261   6.108
  146POPC    HB16927   0.643   1.257   5.956
  146POPC    C216928   0.801   1.406   5.960
  146POPC    HS16929   0.737   1.481   6.012
  146POPC   O2116930   0.795   1.426   5.817
  146POPC   C2116931   0.675   1.452   5.769
  146POPC   O2216932   0.577   1.477   5.836
  146POPC   C2216933   0.685   1.469   5.617
  146POPC   H2R16934   0.787   1.503   5.590
  146POPC   H2S16935   0.614   1.551   5.593
  146POPC    C316936   0.947   1.428   6.011
  146POPC    HX16937   0.954   1.384   6.112
  146POPC    HY16938   0.963   1.538   6.021
  146POPC   O3116939   1.045   1.379   5.918
  146POPC   C3116940   1.132   1.290   5.962
  146POPC   O3216941   1.142   1.248   6.077
  146POPC   C3216942   1.229   1.254   5.849
  146POPC   H2X16943   1.299   1.178   5.890
  146POPC   H2Y16944   1.287   1.345   5.824
  146POPC   C2316945   0.643   1.346   5.532
  146POPC   H3R16946   0.614   1.382   5.431
  146POPC   H3S16947   0.553   1.300   5.577
  146POPC   C2416948   0.751   1.238   5.513
  146POPC   H4R16949   0.705   1.151   5.463
  146POPC   H4S16950   0.784   1.204   5.614
  146POPC   C2516951   0.877   1.279   5.432
  146POPC   H5R16952   0.948   1.194   5.439
  146POPC   H5S16953   0.925   1.367   5.480
  146POPC   C2616954   0.855   1.305   5.282
  146POPC   H6R16955   0.798   1.400   5.272
  146POPC   H6S16956   0.794   1.222   5.241
  146POPC   C2716957   0.985   1.316   5.198
  146POPC   H7R16958   1.044   1.225   5.220
  146POPC   H7S16959   1.046   1.402   5.233
  146POPC   C2816960   0.966   1.322   5.043
  146POPC   H8R16961   0.864   1.288   5.015
  146POPC   H8S16962   1.033   1.244   5.002
  146POPC   C2916963   1.005   1.451   4.974
  146POPC   H9116964   1.111   1.477   4.989
  146POPC  C21016965   0.931   1.536   4.899
  146POPC  H10116966   0.982   1.627   4.862
  146POPC  C21116967   0.786   1.532   4.861
  146POPC  H11R16968   0.742   1.627   4.898
  146POPC  H11S16969   0.736   1.451   4.917
  146POPC  C21216970   0.738   1.518   4.714
  146POPC  H12R16971   0.734   1.411   4.686
  146POPC  H12S16972   0.808   1.570   4.645
  146POPC  C21316973   0.598   1.583   4.698
  146POPC  H13R16974   0.613   1.691   4.675
  146POPC  H13S16975   0.547   1.581   4.796
  146POPC  C21416976   0.495   1.530   4.597
  146POPC  H14R16977   0.426   1.614   4.576
  146POPC  H14S16978   0.434   1.452   4.647
  146POPC  C21516979   0.541   1.473   4.462
  146POPC  H15R16980   0.455   1.487   4.393
  146POPC  H15S16981   0.558   1.363   4.471
  146POPC  C21616982   0.663   1.533   4.392
  146POPC  H16R16983   0.756   1.491   4.435
  146POPC  H16S16984   0.664   1.644   4.406
  146POPC  C21716985   0.656   1.504   4.241
  146POPC  H17R16986   0.567   1.555   4.200
  146POPC  H17S16987   0.643   1.395   4.228
  146POPC  C21816988   0.780   1.547   4.163
  146POPC  H18R16989   0.800   1.655   4.179
  146POPC  H18S16990   0.766   1.529   4.055
  146POPC  H18T16991   0.867   1.489   4.198
  146POPC   C3316992   1.162   1.198   5.722
  146POPC   H3X16993   1.105   1.279   5.671
  146POPC   H3Y16994   1.089   1.118   5.747
  146POPC   C3416995   1.268   1.140   5.626
  146POPC   H4X16996   1.312   1.050   5.673
  146POPC   H4Y16997   1.349   1.216   5.617
  146POPC   C3516998   1.218   1.107   5.485
  146POPC   H5X16999   1.307   1.081   5.423
  146POPC   H5Y17000   1.172   1.197   5.440
  146POPC   C3617001   1.119   0.989   5.476
  146POPC   H6X17002   1.024   1.018   5.524
  146POPC   H6Y17003   1.158   0.902   5.533
  146POPC   C3717004   1.094   0.947   5.330
  146POPC   H7X17005   1.164   0.866   5.303
  146POPC   H7Y17006   1.116   1.033   5.263
  146POPC   C3817007   0.949   0.902   5.302
  146POPC   H8X17008   0.879   0.985   5.324
  146POPC   H8Y17009   0.926   0.818   5.371
  146POPC   C3917010   0.928   0.854   5.157
  146POPC   H9X17011   0.832   0.796   5.152
  146POPC   H9Y17012   1.010   0.784   5.130
  146POPC  C31017013   0.920   0.966   5.052
  146POPC  H10X17014   1.006   1.036   5.067
  146POPC  H10Y17015   0.827   1.024   5.067
  146POPC  C31117016   0.926   0.913   4.908
  146POPC  H11X17017   0.851   0.832   4.896
  146POPC  H11Y17018   1.026   0.867   4.892
  146POPC  C31217019   0.902   1.019   4.799
  146POPC  H12X17020   0.965   1.108   4.818
  146POPC  H12Y17021   0.796   1.050   4.802
  146POPC  C31317022   0.935   0.964   4.659
  146POPC  H13X17023   0.888   0.863   4.650
  146POPC  H13Y17024   1.045   0.950   4.649
  146POPC  C31417025   0.882   1.048   4.542
  146POPC  H14X17026   0.772   1.060   4.556
  146POPC  H14Y17027   0.896   0.993   4.447
  146POPC  C31517028   0.945   1.187   4.527
  146POPC  H15X17029   0.943   1.241   4.624
  146POPC  H15Y17030   0.883   1.246   4.456
  146POPC  C31617031   1.088   1.182   4.472
  146POPC  H16X17032   1.090   1.130   4.374
  146POPC  H16Y17033   1.155   1.127   4.543
  146POPC  H16Z17034   1.129   1.284   4.458
  147POPC     N17035   1.958   0.033   6.293
  147POPC   C1217036   1.959   0.094   6.152
  147POPC  H12A17037   1.926   0.019   6.082
  147POPC  H12B17038   2.060   0.119   6.125
  147POPC   C1317039   2.055  -0.081   6.299
  147POPC  H13A17040   2.035  -0.151   6.219
  147POPC  H13B17041   2.156  -0.047   6.287
  147POPC  H13C17042   2.045  -0.134   6.393
  147POPC   C1417043   1.990   0.137   6.396
  147POPC  H14A17044   1.977   0.098   6.496
  147POPC  H14B17045   2.090   0.175   6.384
  147POPC  H14C17046   1.921   0.219   6.385
  147POPC   C1517047   1.821  -0.022   6.322
  147POPC  H15A17048   1.791  -0.091   6.246
  147POPC  H15B17049   1.749   0.058   6.315
  147POPC  H15C17050   1.815  -0.069   6.419
  147POPC   C1117051   1.869   0.218   6.124
  147POPC  H11A17052   1.881   0.248   6.018
  147POPC  H11B17053   1.905   0.303   6.185
  147POPC     P17054   1.642   0.096   6.065
  147POPC   O1317055   1.571   0.174   5.964
  147POPC   O1417056   1.561   0.019   6.163
  147POPC   O1217057   1.732   0.194   6.154
  147POPC   O1117058   1.749  -0.002   5.999
  147POPC    C117059   1.744  -0.145   6.011
  147POPC    HA17060   1.652  -0.180   6.061
  147POPC    HB17061   1.831  -0.181   6.070
  147POPC    C217062   1.749  -0.218   5.874
  147POPC    HS17063   1.696  -0.315   5.891
  147POPC   O2117064   1.886  -0.238   5.831
  147POPC   C2117065   1.903  -0.353   5.764
  147POPC   O2217066   1.827  -0.448   5.769
  147POPC   C2217067   2.018  -0.347   5.664
  147POPC   H2R17068   1.971  -0.322   5.567
  147POPC   H2S17069   2.059  -0.450   5.658
  147POPC    C317070   1.669  -0.141   5.765
  147POPC    HX17071   1.714  -0.039   5.759
  147POPC    HY17072   1.563  -0.131   5.796
  147POPC   O3117073   1.678  -0.210   5.639
  147POPC   C3117074   1.665  -0.133   5.532
  147POPC   O3217075   1.629  -0.017   5.533
  147POPC   C3217076   1.710  -0.213   5.411
  147POPC   H2X17077   1.651  -0.307   5.406
  147POPC   H2Y17078   1.817  -0.238   5.427
  147POPC   C2317079   2.136  -0.249   5.687
  147POPC   H3R17080   2.203  -0.295   5.763
  147POPC   H3S17081   2.100  -0.152   5.727
  147POPC   C2417082   2.214  -0.229   5.556
  147POPC   H4R17083   2.220  -0.326   5.503
  147POPC   H4S17084   2.319  -0.199   5.578
  147POPC   C2517085   2.153  -0.124   5.461
  147POPC   H5R17086   2.046  -0.148   5.443
  147POPC   H5S17087   2.206  -0.129   5.363
  147POPC   C2617088   2.166   0.020   5.513
  147POPC   H6R17089   2.274   0.043   5.526
  147POPC   H6S17090   2.117   0.028   5.613
  147POPC   C2717091   2.106   0.129   5.422
  147POPC   H7R17092   2.153   0.124   5.322
  147POPC   H7S17093   2.131   0.227   5.467
  147POPC   C2817094   1.953   0.119   5.408
  147POPC   H8R17095   1.908   0.104   5.509
  147POPC   H8S17096   1.931   0.026   5.351
  147POPC   C2917097   1.892   0.242   5.344
  147POPC   H9117098   1.892   0.331   5.409
  147POPC  C21017099   1.841   0.253   5.221
  147POPC  H10117100   1.801   0.350   5.188
  147POPC  C21117101   1.832   0.144   5.117
  147POPC  H11R17102   1.727   0.127   5.085
  147POPC  H11S17103   1.871   0.048   5.157
  147POPC  C21217104   1.920   0.174   4.995
  147POPC  H12R17105   2.020   0.206   5.032
  147POPC  H12S17106   1.877   0.257   4.935
  147POPC  C21317107   1.941   0.050   4.908
  147POPC  H13R17108   1.846   0.018   4.860
  147POPC  H13S17109   1.977  -0.033   4.971
  147POPC  C21417110   2.047   0.080   4.802
  147POPC  H14R17111   2.128   0.139   4.852
  147POPC  H14S17112   2.003   0.144   4.722
  147POPC  C21517113   2.114  -0.043   4.743
  147POPC  H15R17114   2.036  -0.111   4.705
  147POPC  H15S17115   2.171  -0.098   4.820
  147POPC  C21617116   2.206  -0.003   4.628
  147POPC  H16R17117   2.300   0.041   4.669
  147POPC  H16S17118   2.157   0.078   4.570
  147POPC  C21717119   2.235  -0.119   4.532
  147POPC  H17R17120   2.252  -0.212   4.590
  147POPC  H17S17121   2.327  -0.098   4.474
  147POPC  C21817122   2.118  -0.136   4.436
  147POPC  H18R17123   2.037  -0.064   4.463
  147POPC  H18S17124   2.075  -0.238   4.443
  147POPC  H18T17125   2.147  -0.113   4.332
  147POPC   C3317126   1.696  -0.133   5.280
  147POPC   H3X17127   1.731  -0.029   5.297
  147POPC   H3Y17128   1.590  -0.124   5.249
  147POPC   C3417129   1.777  -0.193   5.165
  147POPC   H4X17130   1.885  -0.183   5.188
  147POPC   H4Y17131   1.757  -0.133   5.074
  147POPC   C3517132   1.748  -0.341   5.136
  147POPC   H5X17133   1.641  -0.359   5.114
  147POPC   H5Y17134   1.773  -0.401   5.226
  147POPC   C3617135   1.832  -0.390   5.019
  147POPC   H6X17136   1.836  -0.501   5.017
  147POPC   H6Y17137   1.936  -0.353   5.035
  147POPC   C3717138   1.786  -0.340   4.883
  147POPC   H7X17139   1.759  -0.233   4.888
  147POPC   H7Y17140   1.695  -0.396   4.852
  147POPC   C3817141   1.897  -0.358   4.780
  147POPC   H8X17142   1.936  -0.462   4.788
  147POPC   H8Y17143   1.981  -0.289   4.803
  147POPC   C3917144   1.846  -0.337   4.637
  147POPC   H9X17145   1.760  -0.406   4.626
  147POPC   H9Y17146   1.925  -0.367   4.564
  147POPC  C31017147   1.797  -0.196   4.605
  147POPC  H10X17148   1.883  -0.129   4.579
  147POPC  H10Y17149   1.745  -0.150   4.692
  147POPC  C31117150   1.701  -0.199   4.487
  147POPC  H11X17151   1.605  -0.237   4.528
  147POPC  H11Y17152   1.737  -0.271   4.410
  147POPC  C31217153   1.680  -0.062   4.422
  147POPC  H12X17154   1.684   0.016   4.501
  147POPC  H12Y17155   1.581  -0.053   4.373
  147POPC  C31317156   1.782  -0.036   4.311
  147POPC  H13X17157   1.744  -0.078   4.216
  147POPC  H13Y17158   1.878  -0.087   4.335
  147POPC  C31417159   1.810   0.112   4.298
  147POPC  H14X17160   1.713   0.166   4.304
  147POPC  H14Y17161   1.857   0.135   4.200
  147POPC  C31517162   1.902   0.163   4.408
  147POPC  H15X17163   2.007   0.137   4.385
  147POPC  H15Y17164   1.875   0.117   4.505
  147POPC  C31617165   1.888   0.313   4.421
  147POPC  H16X17166   1.909   0.362   4.324
  147POPC  H16Y17167   1.958   0.350   4.498
  147POPC  H16Z17168   1.784   0.339   4.450
  148POPC     N17169   1.294   7.461   6.325
  148POPC   C1217170   1.244   7.319   6.302
  148POPC  H12A17171   1.208   7.311   6.200
  148POPC  H12B17172   1.163   7.297   6.370
  148POPC   C1317173   1.399   7.458   6.430
  148POPC  H13A17174   1.359   7.420   6.523
  148POPC  H13B17175   1.476   7.390   6.397
  148POPC  H13C17176   1.443   7.556   6.445
  148POPC   C1417177   1.359   7.513   6.201
  148POPC  H14A17178   1.290   7.523   6.118
  148POPC  H14B17179   1.410   7.608   6.215
  148POPC  H14C17180   1.434   7.443   6.168
  148POPC   C1517181   1.182   7.551   6.368
  148POPC  H15A17182   1.106   7.557   6.291
  148POPC  H15B17183   1.220   7.651   6.385
  148POPC  H15C17184   1.139   7.515   6.459
  148POPC   C1117185   1.349   7.206   6.317
  148POPC  H11A17186   1.300   7.108   6.299
  148POPC  H11B17187   1.385   7.202   6.422
  148POPC     P17188   1.450   7.178   6.081
  148POPC   O1317189   1.413   7.035   6.083
  148POPC   O1417190   1.574   7.221   6.015
  148POPC   O1217191   1.461   7.227   6.232
  148POPC   O1117192   1.327   7.266   6.032
  148POPC    C117193   1.335   7.344   5.912
  148POPC    HA17194   1.436   7.349   5.867
  148POPC    HB17195   1.308   7.450   5.935
  148POPC    C217196   1.236   7.292   5.806
  148POPC    HS17197   1.186   7.201   5.847
  148POPC   O2117198   1.307   7.265   5.684
  148POPC   C2117199   1.347   7.139   5.667
  148POPC   O2217200   1.318   7.047   5.741
  148POPC   C2217201   1.431   7.125   5.540
  148POPC   H2R17202   1.435   7.017   5.515
  148POPC   H2S17203   1.534   7.157   5.567
  148POPC    C317204   1.124   7.397   5.781
  148POPC    HX17205   1.078   7.422   5.879
  148POPC    HY17206   1.043   7.356   5.718
  148POPC   O3117207   1.183   7.516   5.725
  148POPC   C3117208   1.194   7.505   5.592
  148POPC   O3217209   1.118   7.443   5.520
  148POPC   C3217210   1.323   7.574   5.549
  148POPC   H2X17211   1.406   7.502   5.562
  148POPC   H2Y17212   1.339   7.661   5.616
  148POPC   C2317213   1.383   7.207   5.417
  148POPC   H3R17214   1.469   7.269   5.385
  148POPC   H3S17215   1.300   7.276   5.443
  148POPC   C2417216   1.340   7.124   5.293
  148POPC   H4R17217   1.404   7.033   5.289
  148POPC   H4S17218   1.360   7.183   5.201
  148POPC   C2517219   1.192   7.082   5.293
  148POPC   H5R17220   1.168   7.054   5.398
  148POPC   H5S17221   1.179   6.992   5.230
  148POPC   C2617222   1.090   7.189   5.247
  148POPC   H6R17223   1.114   7.285   5.298
  148POPC   H6S17224   0.989   7.159   5.281
  148POPC   C2717225   1.083   7.213   5.095
  148POPC   H7R17226   1.188   7.222   5.058
  148POPC   H7S17227   1.033   7.310   5.074
  148POPC   C2817228   1.012   7.101   5.014
  148POPC   H8R17229   1.017   7.006   5.073
  148POPC   H8S17230   1.077   7.085   4.925
  148POPC   C2917231   0.872   7.124   4.965
  148POPC   H9117232   0.796   7.116   5.045
  148POPC  C21017233   0.827   7.149   4.839
  148POPC  H10117234   0.719   7.163   4.826
  148POPC  C21117235   0.903   7.161   4.709
  148POPC  H11R17236   0.854   7.100   4.631
  148POPC  H11S17237   1.006   7.119   4.717
  148POPC  C21217238   0.909   7.306   4.655
  148POPC  H12R17239   0.961   7.371   4.728
  148POPC  H12S17240   0.806   7.344   4.644
  148POPC  C21317241   0.979   7.319   4.518
  148POPC  H13R17242   0.928   7.250   4.447
  148POPC  H13S17243   1.085   7.284   4.523
  148POPC  C21417244   0.975   7.462   4.461
  148POPC  H14R17245   1.043   7.528   4.519
  148POPC  H14S17246   0.872   7.501   4.473
  148POPC  C21517247   1.012   7.466   4.312
  148POPC  H15R17248   0.958   7.384   4.260
  148POPC  H15S17249   1.120   7.442   4.301
  148POPC  C21617250   0.980   7.597   4.237
  148POPC  H16R17251   0.874   7.622   4.257
  148POPC  H16S17252   0.990   7.580   4.128
  148POPC  C21717253   1.068   7.717   4.274
  148POPC  H17R17254   1.068   7.730   4.384
  148POPC  H17S17255   1.020   7.806   4.228
  148POPC  C21817256   1.212   7.719   4.222
  148POPC  H18R17257   1.267   7.806   4.262
  148POPC  H18S17258   1.212   7.726   4.111
  148POPC  H18T17259   1.266   7.626   4.252
  148POPC   C3317260   1.314   7.624   5.404
  148POPC   H3X17261   1.383   7.709   5.390
  148POPC   H3Y17262   1.210   7.660   5.390
  148POPC   C3417263   1.337   7.520   5.295
  148POPC   H4X17264   1.258   7.441   5.298
  148POPC   H4Y17265   1.434   7.471   5.313
  148POPC   C3517266   1.336   7.585   5.155
  148POPC   H5X17267   1.401   7.674   5.157
  148POPC   H5Y17268   1.233   7.619   5.129
  148POPC   C3617269   1.386   7.488   5.048
  148POPC   H6X17270   1.302   7.424   5.014
  148POPC   H6Y17271   1.459   7.420   5.097
  148POPC   C3717272   1.458   7.554   4.928
  148POPC   H7X17273   1.502   7.473   4.867
  148POPC   H7Y17274   1.542   7.617   4.965
  148POPC   C3817275   1.366   7.640   4.840
  148POPC   H8X17276   1.370   7.745   4.875
  148POPC   H8Y17277   1.261   7.605   4.853
  148POPC   C3917278   1.400   7.633   4.689
  148POPC   H9X17279   1.510   7.643   4.675
  148POPC   H9Y17280   1.351   7.718   4.637
  148POPC  C31017281   1.349   7.502   4.628
  148POPC  H10X17282   1.243   7.491   4.659
  148POPC  H10Y17283   1.409   7.420   4.673
  148POPC  C31117284   1.353   7.487   4.475
  148POPC  H11X17285   1.424   7.562   4.435
  148POPC  H11Y17286   1.254   7.514   4.434
  148POPC  C31217287   1.396   7.346   4.427
  148POPC  H12X17288   1.309   7.278   4.424
  148POPC  H12Y17289   1.466   7.304   4.502
  148POPC  C31317290   1.471   7.345   4.292
  148POPC  H13X17291   1.519   7.246   4.276
  148POPC  H13Y17292   1.552   7.421   4.293
  148POPC  C31417293   1.382   7.372   4.171
  148POPC  H14X17294   1.281   7.401   4.208
  148POPC  H14Y17295   1.368   7.278   4.113
  148POPC  C31517296   1.431   7.485   4.080
  148POPC  H15X17297   1.527   7.458   4.033
  148POPC  H15Y17298   1.449   7.576   4.142
  148POPC  C31617299   1.326   7.517   3.973
  148POPC  H16X17300   1.310   7.428   3.908
  148POPC  H16Y17301   1.357   7.602   3.909
  148POPC  H16Z17302   1.228   7.540   4.019
  149POPC     N17303   7.691   1.067   6.253
  149POPC   C1217304   7.549   1.021   6.222
  149POPC  H12A17305   7.532   0.923   6.265
  149POPC  H12B17306   7.538   1.006   6.115
  149POPC   C1317307   7.694   1.137   6.386
  149POPC  H13A17308   7.657   1.074   6.466
  149POPC  H13B17309   7.791   1.177   6.410
  149POPC  H13C17310   7.626   1.221   6.381
  149POPC   C1417311   7.783   0.949   6.249
  149POPC  H14A17312   7.757   0.872   6.320
  149POPC  H14B17313   7.773   0.898   6.154
  149POPC  H14C17314   7.886   0.976   6.261
  149POPC   C1517315   7.736   1.167   6.150
  149POPC  H15A17316   7.722   1.129   6.050
  149POPC  H15B17317   7.838   1.199   6.165
  149POPC  H15C17318   7.673   1.254   6.154
  149POPC   C1117319   7.429   1.111   6.264
  149POPC  H11A17320   7.423   1.115   6.375
  149POPC  H11B17321   7.335   1.062   6.230
  149POPC     P17322   7.427   1.275   6.060
  149POPC   O1317323   7.543   1.362   6.039
  149POPC   O1417324   7.296   1.331   6.025
  149POPC   O1217325   7.435   1.243   6.215
  149POPC   O1117326   7.454   1.139   5.984
  149POPC    C117327   7.467   1.142   5.841
  149POPC    HA17328   7.535   1.222   5.806
  149POPC    HB17329   7.367   1.158   5.794
  149POPC    C217330   7.518   1.007   5.790
  149POPC    HS17331   7.454   0.929   5.837
  149POPC   O2117332   7.655   0.997   5.828
  149POPC   C2117333   7.688   0.903   5.911
  149POPC   O2217334   7.613   0.830   5.975
  149POPC   C2217335   7.839   0.896   5.917
  149POPC   H2R17336   7.867   0.829   6.000
  149POPC   H2S17337   7.880   0.998   5.935
  149POPC    C317338   7.507   0.984   5.634
  149POPC    HX17339   7.399   0.972   5.610
  149POPC    HY17340   7.557   0.886   5.618
  149POPC   O3117341   7.563   1.089   5.550
  149POPC   C3117342   7.606   1.045   5.429
  149POPC   O3217343   7.618   0.928   5.399
  149POPC   C3217344   7.626   1.163   5.331
  149POPC   H2X17345   7.732   1.194   5.339
  149POPC   H2Y17346   7.563   1.247   5.365
  149POPC   C2317347   7.893   0.838   5.785
  149POPC   H3R17348   7.840   0.744   5.759
  149POPC   H3S17349   8.000   0.813   5.803
  149POPC   C2417350   7.893   0.933   5.665
  149POPC   H4R17351   7.794   0.981   5.649
  149POPC   H4S17352   7.912   0.874   5.574
  149POPC   C2517353   8.000   1.042   5.677
  149POPC   H5R17354   8.097   0.999   5.708
  149POPC   H5S17355   7.969   1.115   5.755
  149POPC   C2617356   8.017   1.114   5.543
  149POPC   H6R17357   8.068   1.211   5.560
  149POPC   H6S17358   7.916   1.136   5.502
  149POPC   C2717359   8.097   1.033   5.441
  149POPC   H7R17360   8.039   0.944   5.409
  149POPC   H7S17361   8.190   0.998   5.489
  149POPC   C2817362   8.135   1.118   5.319
  149POPC   H8R17363   8.200   1.056   5.253
  149POPC   H8S17364   8.197   1.202   5.355
  149POPC   C2917365   8.016   1.172   5.243
  149POPC   H9117366   7.982   1.272   5.274
  149POPC  C21017367   7.953   1.110   5.143
  149POPC  H10117368   7.872   1.163   5.091
  149POPC  C21117369   7.986   0.974   5.089
  149POPC  H11R17370   8.046   0.917   5.163
  149POPC  H11S17371   8.049   0.982   4.998
  149POPC  C21217372   7.859   0.893   5.059
  149POPC  H12R17373   7.790   0.897   5.147
  149POPC  H12S17374   7.882   0.785   5.044
  149POPC  C21317375   7.785   0.937   4.932
  149POPC  H13R17376   7.762   1.045   4.942
  149POPC  H13S17377   7.688   0.883   4.926
  149POPC  C21417378   7.864   0.915   4.802
  149POPC  H14R17379   7.883   0.806   4.791
  149POPC  H14S17380   7.962   0.967   4.805
  149POPC  C21517381   7.785   0.966   4.681
  149POPC  H15R17382   7.684   0.921   4.688
  149POPC  H15S17383   7.832   0.927   4.588
  149POPC  C21617384   7.773   1.119   4.672
  149POPC  H16R17385   7.783   1.165   4.773
  149POPC  H16S17386   7.672   1.146   4.634
  149POPC  C21717387   7.879   1.182   4.582
  149POPC  H17R17388   7.879   1.133   4.483
  149POPC  H17S17389   7.976   1.161   4.631
  149POPC  C21817390   7.865   1.333   4.563
  149POPC  H18R17391   7.959   1.376   4.522
  149POPC  H18S17392   7.844   1.383   4.660
  149POPC  H18T17393   7.783   1.356   4.492
  149POPC   C3317394   7.593   1.127   5.182
  149POPC   H3X17395   7.524   1.040   5.177
  149POPC   H3Y17396   7.687   1.091   5.135
  149POPC   C3417397   7.536   1.244   5.099
  149POPC   H4X17398   7.596   1.334   5.125
  149POPC   H4Y17399   7.431   1.264   5.128
  149POPC   C3517400   7.542   1.233   4.944
  149POPC   H5X17401   7.646   1.204   4.917
  149POPC   H5Y17402   7.528   1.335   4.903
  149POPC   C3617403   7.443   1.140   4.868
  149POPC   H6X17404   7.439   1.040   4.915
  149POPC   H6Y17405   7.481   1.127   4.765
  149POPC   C3717406   7.301   1.200   4.855
  149POPC   H7X17407   7.309   1.307   4.827
  149POPC   H7Y17408   7.256   1.193   4.956
  149POPC   C3817409   7.200   1.131   4.761
  149POPC   H8X17410   7.099   1.139   4.807
  149POPC   H8Y17411   7.224   1.022   4.756
  149POPC   C3917412   7.183   1.196   4.622
  149POPC   H9X17413   7.272   1.257   4.598
  149POPC   H9Y17414   7.096   1.265   4.625
  149POPC  C31017415   7.152   1.098   4.509
  149POPC  H10X17416   7.142   1.156   4.415
  149POPC  H10Y17417   7.053   1.049   4.528
  149POPC  C31117418   7.260   0.993   4.488
  149POPC  H11X17419   7.226   0.918   4.413
  149POPC  H11Y17420   7.280   0.937   4.581
  149POPC  C31217421   7.390   1.058   4.439
  149POPC  H12X17422   7.414   1.148   4.499
  149POPC  H12Y17423   7.375   1.094   4.335
  149POPC  C31317424   7.509   0.965   4.450
  149POPC  H13X17425   7.486   0.864   4.409
  149POPC  H13Y17426   7.528   0.950   4.558
  149POPC  C31417427   7.633   1.022   4.381
  149POPC  H14X17428   7.720   0.959   4.407
  149POPC  H14Y17429   7.651   1.125   4.421
  149POPC  C31517430   7.624   1.032   4.229
  149POPC  H15X17431   7.541   1.099   4.200
  149POPC  H15Y17432   7.601   0.931   4.188
  149POPC  C31617433   7.754   1.082   4.169
  149POPC  H16X17434   7.768   1.189   4.198
  149POPC  H16Y17435   7.753   1.075   4.058
  149POPC  H16Z17436   7.840   1.024   4.208
  150POPC     N17437   0.717   7.452   6.237
  150POPC   C1217438   0.683   7.308   6.201
  150POPC  H12A17439   0.625   7.267   6.282
  150POPC  H12B17440   0.774   7.249   6.193
  150POPC   C1317441   0.590   7.531   6.252
  150POPC  H13A17442   0.535   7.531   6.159
  150POPC  H13B17443   0.522   7.483   6.321
  150POPC  H13C17444   0.605   7.634   6.280
  150POPC   C1417445   0.789   7.457   6.368
  150POPC  H14A17446   0.808   7.559   6.397
  150POPC  H14B17447   0.726   7.413   6.444
  150POPC  H14C17448   0.881   7.400   6.367
  150POPC   C1517449   0.797   7.516   6.128
  150POPC  H15A17450   0.891   7.465   6.112
  150POPC  H15B17451   0.814   7.621   6.149
  150POPC  H15C17452   0.740   7.511   6.037
  150POPC   C1117453   0.598   7.285   6.074
  150POPC  H11A17454   0.594   7.177   6.047
  150POPC  H11B17455   0.641   7.338   5.987
  150POPC     P17456   0.371   7.257   6.198
  150POPC   O1317457   0.386   7.325   6.329
  150POPC   O1417458   0.398   7.111   6.203
  150POPC   O1217459   0.467   7.330   6.096
  150POPC   O1117460   0.229   7.288   6.135
  150POPC    C117461   0.207   7.418   6.075
  150POPC    HA17462   0.278   7.495   6.112
  150POPC    HB17463   0.107   7.455   6.106
  150POPC    C217464   0.209   7.425   5.918
  150POPC    HS17465   0.104   7.409   5.886
  150POPC   O2117466   0.294   7.324   5.860
  150POPC   C2117467   0.285   7.323   5.727
  150POPC   O2217468   0.197   7.377   5.662
  150POPC   C2217469   0.406   7.256   5.663
  150POPC   H2R17470   0.371   7.166   5.607
  150POPC   H2S17471   0.477   7.224   5.742
  150POPC    C317472   0.254   7.569   5.870
  150POPC    HX17473   0.239   7.643   5.952
  150POPC    HY17474   0.181   7.596   5.791
  150POPC   O3117475   0.388   7.574   5.812
  150POPC   C3117476   0.486   7.614   5.889
  150POPC   O3217477   0.477   7.649   6.006
  150POPC   C3217478   0.622   7.608   5.816
  150POPC   H2X17479   0.633   7.510   5.765
  150POPC   H2Y17480   0.698   7.612   5.896
  150POPC   C2317481   0.469   7.354   5.564
  150POPC   H3R17482   0.505   7.443   5.621
  150POPC   H3S17483   0.393   7.392   5.492
  150POPC   C2417484   0.586   7.297   5.484
  150POPC   H4R17485   0.546   7.228   5.406
  150POPC   H4S17486   0.652   7.239   5.552
  150POPC   C2517487   0.667   7.411   5.421
  150POPC   H5R17488   0.734   7.451   5.500
  150POPC   H5S17489   0.595   7.491   5.393
  150POPC   C2617490   0.751   7.383   5.297
  150POPC   H6R17491   0.840   7.322   5.325
  150POPC   H6S17492   0.790   7.480   5.259
  150POPC   C2717493   0.675   7.314   5.183
  150POPC   H7R17494   0.652   7.209   5.213
  150POPC   H7S17495   0.745   7.313   5.098
  150POPC   C2817496   0.543   7.381   5.140
  150POPC   H8R17497   0.566   7.490   5.140
  150POPC   H8S17498   0.463   7.365   5.216
  150POPC   C2917499   0.502   7.340   5.001
  150POPC   H9117500   0.584   7.299   4.941
  150POPC  C21017501   0.381   7.349   4.943
  150POPC  H10117502   0.373   7.322   4.836
  150POPC  C21117503   0.251   7.403   4.997
  150POPC  H11R17504   0.244   7.512   4.977
  150POPC  H11S17505   0.246   7.390   5.107
  150POPC  C21217506   0.128   7.336   4.932
  150POPC  H12R17507   0.038   7.373   4.987
  150POPC  H12S17508   0.128   7.226   4.948
  150POPC  C21317509   0.106   7.366   4.782
  150POPC  H13R17510   0.184   7.438   4.747
  150POPC  H13S17511   0.009   7.419   4.770
  150POPC  C21417512   0.104   7.245   4.686
  150POPC  H14R17513   0.208   7.207   4.673
  150POPC  H14S17514   0.070   7.282   4.587
  150POPC  C21517515   0.014   7.126   4.726
  150POPC  H15R17516  -0.082   7.162   4.767
  150POPC  H15S17517   0.064   7.070   4.808
  150POPC  C21617518  -0.012   7.029   4.609
  150POPC  H16R17519   0.067   7.044   4.532
  150POPC  H16S17520  -0.109   7.055   4.561
  150POPC  C21717521  -0.014   6.879   4.645
  150POPC  H17R17522   0.070   6.856   4.714
  150POPC  H17S17523  -0.108   6.856   4.701
  150POPC  C21817524  -0.001   6.787   4.523
  150POPC  H18R17525   0.092   6.810   4.468
  150POPC  H18S17526  -0.087   6.801   4.454
  150POPC  H18T17527   0.002   6.681   4.555
  150POPC   C3317528   0.653   7.727   5.721
  150POPC   H3X17529   0.751   7.772   5.747
  150POPC   H3Y17530   0.576   7.805   5.738
  150POPC   C3417531   0.653   7.698   5.571
  150POPC   H4X17532   0.567   7.632   5.545
  150POPC   H4Y17533   0.748   7.647   5.545
  150POPC   C3517534   0.642   7.825   5.484
  150POPC   H5X17535   0.710   7.900   5.528
  150POPC   H5Y17536   0.539   7.867   5.489
  150POPC   C3617537   0.683   7.806   5.336
  150POPC   H6X17538   0.770   7.737   5.329
  150POPC   H6Y17539   0.712   7.906   5.299
  150POPC   C3717540   0.574   7.762   5.240
  150POPC   H7X17541   0.493   7.837   5.248
  150POPC   H7Y17542   0.534   7.663   5.271
  150POPC   C3817543   0.621   7.755   5.093
  150POPC   H8X17544   0.702   7.679   5.086
  150POPC   H8Y17545   0.662   7.852   5.059
  150POPC   C3917546   0.506   7.713   5.001
  150POPC   H9X17547   0.438   7.799   4.978
  150POPC   H9Y17548   0.448   7.638   5.059
  150POPC  C31017549   0.543   7.637   4.874
  150POPC  H10X17550   0.455   7.578   4.842
  150POPC  H10Y17551   0.626   7.566   4.897
  150POPC  C31117552   0.580   7.722   4.755
  150POPC  H11X17553   0.651   7.802   4.787
  150POPC  H11Y17554   0.488   7.770   4.715
  150POPC  C31217555   0.646   7.636   4.647
  150POPC  H12X17556   0.589   7.541   4.634
  150POPC  H12Y17557   0.747   7.608   4.683
  150POPC  C31317558   0.657   7.708   4.513
  150POPC  H13X17559   0.738   7.661   4.452
  150POPC  H13Y17560   0.688   7.814   4.533
  150POPC  C31417561   0.529   7.707   4.430
  150POPC  H14X17562   0.546   7.770   4.340
  150POPC  H14Y17563   0.445   7.752   4.487
  150POPC  C31517564   0.492   7.566   4.384
  150POPC  H15X17565   0.445   7.509   4.467
  150POPC  H15Y17566   0.588   7.516   4.360
  150POPC  C31617567   0.403   7.561   4.260
  150POPC  H16X17568   0.432   7.477   4.193
  150POPC  H16Y17569   0.414   7.654   4.199
  150POPC  H16Z17570   0.297   7.545   4.287
  151POPC     N17571   3.475   3.317   2.120
  151POPC   C1217572   3.518   3.246   2.249
  151POPC  H12A17573   3.567   3.153   2.225
  151POPC  H12B17574   3.430   3.219   2.305
  151POPC   C1317575   3.397   3.440   2.153
  151POPC  H13A17576   3.455   3.500   2.223
  151POPC  H13B17577   3.379   3.506   2.070
  151POPC  H13C17578   3.304   3.419   2.204
  151POPC   C1417579   3.599   3.360   2.047
  151POPC  H14A17580   3.660   3.276   2.018
  151POPC  H14B17581   3.574   3.418   1.960
  151POPC  H14C17582   3.657   3.424   2.112
  151POPC   C1517583   3.393   3.228   2.033
  151POPC  H15A17584   3.303   3.196   2.083
  151POPC  H15B17585   3.448   3.141   2.003
  151POPC  H15C17586   3.365   3.281   1.943
  151POPC   C1117587   3.610   3.323   2.349
  151POPC  H11A17588   3.713   3.329   2.306
  151POPC  H11B17589   3.618   3.265   2.443
  151POPC     P17590   3.537   3.530   2.507
  151POPC   O1317591   3.487   3.665   2.467
  151POPC   O1417592   3.661   3.524   2.585
  151POPC   O1217593   3.561   3.454   2.371
  151POPC   O1117594   3.420   3.453   2.577
  151POPC    C117595   3.325   3.375   2.506
  151POPC    HA17596   3.375   3.286   2.462
  151POPC    HB17597   3.278   3.434   2.424
  151POPC    C217598   3.214   3.316   2.598
  151POPC    HS17599   3.143   3.258   2.535
  151POPC   O2117600   3.141   3.413   2.670
  151POPC   C2117601   3.091   3.520   2.620
  151POPC   O2217602   3.086   3.553   2.502
  151POPC   C2217603   3.036   3.600   2.739
  151POPC   H2R17604   2.927   3.580   2.746
  151POPC   H2S17605   3.051   3.708   2.718
  151POPC    C317606   3.272   3.220   2.705
  151POPC    HX17607   3.323   3.137   2.652
  151POPC    HY17608   3.186   3.181   2.763
  151POPC   O3117609   3.372   3.280   2.791
  151POPC   C3117610   3.388   3.216   2.905
  151POPC   O3217611   3.300   3.169   2.975
  151POPC   C3217612   3.537   3.186   2.918
  151POPC   H2X17613   3.596   3.271   2.877
  151POPC   H2Y17614   3.555   3.097   2.854
  151POPC   C2317615   3.106   3.558   2.871
  151POPC   H3R17616   3.216   3.569   2.859
  151POPC   H3S17617   3.088   3.450   2.892
  151POPC   C2417618   3.060   3.637   2.993
  151POPC   H4R17619   3.001   3.726   2.961
  151POPC   H4S17620   3.150   3.675   3.047
  151POPC   C2517621   2.982   3.552   3.092
  151POPC   H5R17622   2.899   3.500   3.040
  151POPC   H5S17623   2.937   3.621   3.167
  151POPC   C2617624   3.069   3.450   3.168
  151POPC   H6R17625   3.177   3.473   3.152
  151POPC   H6S17626   3.052   3.349   3.126
  151POPC   C2717627   3.041   3.453   3.319
  151POPC   H7R17628   2.933   3.439   3.338
  151POPC   H7S17629   3.062   3.555   3.358
  151POPC   C2817630   3.117   3.349   3.401
  151POPC   H8R17631   3.096   3.368   3.508
  151POPC   H8S17632   3.226   3.365   3.385
  151POPC   C2917633   3.075   3.208   3.365
  151POPC   H9117634   2.967   3.195   3.349
  151POPC  C21017635   3.157   3.103   3.351
  151POPC  H10117636   3.114   3.005   3.324
  151POPC  C21117637   3.307   3.104   3.369
  151POPC  H11R17638   3.352   3.179   3.299
  151POPC  H11S17639   3.350   3.005   3.342
  151POPC  C21217640   3.352   3.139   3.513
  151POPC  H12R17641   3.314   3.241   3.538
  151POPC  H12S17642   3.462   3.145   3.518
  151POPC  C21317643   3.302   3.041   3.619
  151POPC  H13R17644   3.372   2.955   3.623
  151POPC  H13S17645   3.202   3.001   3.589
  151POPC  C21417646   3.284   3.105   3.758
  151POPC  H14R17647   3.375   3.164   3.785
  151POPC  H14S17648   3.273   3.024   3.833
  151POPC  C21517649   3.159   3.194   3.764
  151POPC  H15R17650   3.074   3.136   3.722
  151POPC  H15S17651   3.173   3.284   3.700
  151POPC  C21617652   3.120   3.240   3.905
  151POPC  H16R17653   3.106   3.151   3.971
  151POPC  H16S17654   3.022   3.292   3.897
  151POPC  C21717655   3.218   3.337   3.971
  151POPC  H17R17656   3.237   3.421   3.901
  151POPC  H17S17657   3.315   3.284   3.989
  151POPC  C21817658   3.166   3.392   4.103
  151POPC  H18R17659   3.236   3.467   4.145
  151POPC  H18S17660   3.152   3.310   4.177
  151POPC  H18T17661   3.067   3.442   4.089
  151POPC   C3317662   3.582   3.154   3.062
  151POPC   H3X17663   3.677   3.097   3.056
  151POPC   H3Y17664   3.508   3.089   3.115
  151POPC   C3417665   3.609   3.281   3.143
  151POPC   H4X17666   3.515   3.337   3.161
  151POPC   H4Y17667   3.675   3.346   3.082
  151POPC   C3517668   3.680   3.251   3.276
  151POPC   H5X17669   3.726   3.150   3.271
  151POPC   H5Y17670   3.606   3.248   3.358
  151POPC   C3617671   3.792   3.351   3.307
  151POPC   H6X17672   3.865   3.350   3.223
  151POPC   H6Y17673   3.847   3.317   3.398
  151POPC   C3717674   3.744   3.495   3.328
  151POPC   H7X17675   3.710   3.537   3.231
  151POPC   H7Y17676   3.829   3.557   3.364
  151POPC   C3817677   3.630   3.510   3.430
  151POPC   H8X17678   3.541   3.456   3.392
  151POPC   H8Y17679   3.605   3.618   3.436
  151POPC   C3917680   3.663   3.460   3.571
  151POPC   H9X17681   3.737   3.529   3.619
  151POPC   H9Y17682   3.711   3.360   3.563
  151POPC  C31017683   3.538   3.447   3.658
  151POPC  H10X17684   3.470   3.374   3.609
  151POPC  H10Y17685   3.483   3.544   3.661
  151POPC  C31117686   3.565   3.401   3.802
  151POPC  H11X17687   3.468   3.369   3.847
  151POPC  H11Y17688   3.602   3.487   3.862
  151POPC  C31217689   3.667   3.287   3.812
  151POPC  H12X17690   3.767   3.329   3.789
  151POPC  H12Y17691   3.645   3.210   3.735
  151POPC  C31317692   3.671   3.221   3.950
  151POPC  H13X17693   3.606   3.131   3.949
  151POPC  H13Y17694   3.630   3.291   4.026
  151POPC  C31417695   3.814   3.183   3.991
  151POPC  H14X17696   3.869   3.276   4.014
  151POPC  H14Y17697   3.865   3.135   3.904
  151POPC  C31517698   3.822   3.088   4.111
  151POPC  H15X17699   3.928   3.087   4.147
  151POPC  H15Y17700   3.798   2.985   4.078
  151POPC  C31617701   3.731   3.124   4.228
  151POPC  H16X17702   3.751   3.060   4.316
  151POPC  H16Y17703   3.624   3.111   4.199
  151POPC  H16Z17704   3.746   3.231   4.257
  152POPC     N17705   5.182   3.622   2.140
  152POPC   C1217706   5.200   3.495   2.224
  152POPC  H12A17707   5.289   3.443   2.193
  152POPC  H12B17708   5.117   3.429   2.206
  152POPC   C1317709   5.056   3.693   2.180
  152POPC  H13A17710   4.969   3.635   2.154
  152POPC  H13B17711   5.054   3.702   2.287
  152POPC  H13C17712   5.048   3.792   2.136
  152POPC   C1417713   5.299   3.713   2.165
  152POPC  H14A17714   5.311   3.729   2.271
  152POPC  H14B17715   5.390   3.667   2.128
  152POPC  H14C17716   5.287   3.809   2.118
  152POPC   C1517717   5.179   3.589   1.994
  152POPC  H15A17718   5.169   3.678   1.935
  152POPC  H15B17719   5.097   3.522   1.972
  152POPC  H15C17720   5.271   3.541   1.966
  152POPC   C1117721   5.206   3.512   2.378
  152POPC  H11A17722   5.293   3.577   2.407
  152POPC  H11B17723   5.223   3.413   2.424
  152POPC     P17724   5.062   3.606   2.576
  152POPC   O1317725   5.094   3.488   2.659
  152POPC   O1417726   4.926   3.663   2.584
  152POPC   O1217727   5.084   3.567   2.424
  152POPC   O1117728   5.171   3.719   2.598
  152POPC    C117729   5.178   3.832   2.511
  152POPC    HA17730   5.078   3.879   2.498
  152POPC    HB17731   5.215   3.800   2.412
  152POPC    C217732   5.277   3.943   2.562
  152POPC    HS17733   5.330   3.987   2.475
  152POPC   O2117734   5.372   3.890   2.655
  152POPC   C2117735   5.448   3.792   2.612
  152POPC   O2217736   5.468   3.760   2.495
  152POPC   C2217737   5.519   3.729   2.732
  152POPC   H2R17738   5.472   3.771   2.824
  152POPC   H2S17739   5.625   3.760   2.731
  152POPC    C317740   5.200   4.059   2.631
  152POPC    HX17741   5.142   4.112   2.553
  152POPC    HY17742   5.273   4.133   2.672
  152POPC   O3117743   5.108   4.009   2.730
  152POPC   C3117744   5.158   3.995   2.852
  152POPC   O3217745   5.265   4.040   2.891
  152POPC   C3217746   5.059   3.917   2.939
  152POPC   H2X17747   5.051   3.814   2.898
  152POPC   H2Y17748   4.960   3.966   2.930
  152POPC   C2317749   5.505   3.575   2.732
  152POPC   H3R17750   5.556   3.532   2.643
  152POPC   H3S17751   5.398   3.549   2.726
  152POPC   C2417752   5.562   3.509   2.859
  152POPC   H4R17753   5.672   3.520   2.863
  152POPC   H4S17754   5.539   3.401   2.854
  152POPC   C2517755   5.502   3.566   2.988
  152POPC   H5R17756   5.391   3.572   2.977
  152POPC   H5S17757   5.540   3.669   3.004
  152POPC   C2617758   5.534   3.482   3.113
  152POPC   H6R17759   5.641   3.453   3.111
  152POPC   H6S17760   5.474   3.389   3.111
  152POPC   C2717761   5.507   3.558   3.243
  152POPC   H7R17762   5.578   3.643   3.250
  152POPC   H7S17763   5.529   3.490   3.328
  152POPC   C2817764   5.363   3.615   3.257
  152POPC   H8R17765   5.349   3.694   3.180
  152POPC   H8S17766   5.356   3.666   3.355
  152POPC   C2917767   5.253   3.513   3.246
  152POPC   H9117768   5.195   3.517   3.152
  152POPC  C21017769   5.223   3.421   3.339
  152POPC  H10117770   5.140   3.351   3.320
  152POPC  C21117771   5.295   3.404   3.470
  152POPC  H11R17772   5.380   3.474   3.478
  152POPC  H11S17773   5.339   3.302   3.477
  152POPC  C21217774   5.207   3.428   3.594
  152POPC  H12R17775   5.158   3.332   3.621
  152POPC  H12S17776   5.126   3.501   3.573
  152POPC  C21317777   5.289   3.479   3.714
  152POPC  H13R17778   5.281   3.589   3.718
  152POPC  H13S17779   5.396   3.454   3.697
  152POPC  C21417780   5.248   3.415   3.847
  152POPC  H14R17781   5.306   3.461   3.930
  152POPC  H14S17782   5.278   3.309   3.841
  152POPC  C21517783   5.097   3.420   3.880
  152POPC  H15R17784   5.081   3.364   3.975
  152POPC  H15S17785   5.041   3.370   3.799
  152POPC  C21617786   5.041   3.561   3.898
  152POPC  H16R17787   5.070   3.620   3.808
  152POPC  H16S17788   5.089   3.607   3.987
  152POPC  C21717789   4.889   3.570   3.916
  152POPC  H17R17790   4.838   3.522   3.829
  152POPC  H17S17791   4.862   3.678   3.914
  152POPC  C21817792   4.838   3.509   4.047
  152POPC  H18R17793   4.907   3.533   4.130
  152POPC  H18S17794   4.829   3.399   4.039
  152POPC  H18T17795   4.737   3.547   4.072
  152POPC   C3317796   5.106   3.915   3.086
  152POPC   H3X17797   5.127   4.018   3.120
  152POPC   H3Y17798   5.202   3.858   3.093
  152POPC   C3417799   5.005   3.852   3.183
  152POPC   H4X17800   4.988   3.746   3.155
  152POPC   H4Y17801   4.908   3.906   3.176
  152POPC   C3517802   5.057   3.860   3.328
  152POPC   H5X17803   5.070   3.967   3.356
  152POPC   H5Y17804   5.157   3.812   3.331
  152POPC   C3617805   4.967   3.790   3.430
  152POPC   H6X17806   4.948   3.686   3.394
  152POPC   H6Y17807   4.869   3.842   3.436
  152POPC   C3717808   5.030   3.782   3.570
  152POPC   H7X17809   5.129   3.733   3.562
  152POPC   H7Y17810   4.966   3.717   3.633
  152POPC   C3817811   5.046   3.918   3.640
  152POPC   H8X17812   4.946   3.967   3.640
  152POPC   H8Y17813   5.116   3.983   3.583
  152POPC   C3917814   5.093   3.906   3.786
  152POPC   H9X17815   5.031   3.828   3.836
  152POPC   H9Y17816   5.073   4.001   3.839
  152POPC  C31017817   5.243   3.874   3.800
  152POPC  H10X17818   5.298   3.969   3.791
  152POPC  H10Y17819   5.276   3.810   3.715
  152POPC  C31117820   5.283   3.803   3.931
  152POPC  H11X17821   5.392   3.817   3.945
  152POPC  H11Y17822   5.268   3.693   3.920
  152POPC  C31217823   5.207   3.851   4.055
  152POPC  H12X17824   5.101   3.818   4.052
  152POPC  H12Y17825   5.205   3.962   4.053
  152POPC  C31317826   5.270   3.805   4.188
  152POPC  H13X17827   5.241   3.879   4.266
  152POPC  H13Y17828   5.381   3.808   4.180
  152POPC  C31417829   5.227   3.666   4.236
  152POPC  H14X17830   5.246   3.592   4.156
  152POPC  H14Y17831   5.117   3.668   4.255
  152POPC  C31517832   5.299   3.619   4.364
  152POPC  H15X17833   5.401   3.585   4.337
  152POPC  H15Y17834   5.245   3.531   4.403
  152POPC  C31617835   5.310   3.724   4.475
  152POPC  H16X17836   5.211   3.770   4.496
  152POPC  H16Y17837   5.380   3.805   4.445
  152POPC  H16Z17838   5.348   3.678   4.568
  153POPC     N17839   2.548   3.208   2.180
  153POPC   C1217840   2.503   3.156   2.317
  153POPC  H12A17841   2.543   3.057   2.332
  153POPC  H12B17842   2.395   3.147   2.320
  153POPC   C1317843   2.535   3.357   2.178
  153POPC  H13A17844   2.594   3.396   2.259
  153POPC  H13B17845   2.572   3.402   2.087
  153POPC  H13C17846   2.433   3.388   2.195
  153POPC   C1417847   2.692   3.173   2.162
  153POPC  H14A17848   2.745   3.199   2.253
  153POPC  H14B17849   2.709   3.067   2.150
  153POPC  H14C17850   2.744   3.230   2.086
  153POPC   C1517851   2.469   3.142   2.071
  153POPC  H15A17852   2.364   3.162   2.081
  153POPC  H15B17853   2.485   3.035   2.075
  153POPC  H15C17854   2.501   3.175   1.973
  153POPC   C1117855   2.545   3.237   2.443
  153POPC  H11A17856   2.505   3.188   2.534
  153POPC  H11B17857   2.498   3.338   2.441
  153POPC     P17858   2.780   3.131   2.491
  153POPC   O1317859   2.835   3.150   2.626
  153POPC   O1417860   2.875   3.120   2.378
  153POPC   O1217861   2.686   3.253   2.452
  153POPC   O1117862   2.679   3.008   2.486
  153POPC    C117863   2.723   2.880   2.439
  153POPC    HA17864   2.833   2.867   2.445
  153POPC    HB17865   2.696   2.869   2.332
  153POPC    C217866   2.660   2.759   2.517
  153POPC    HS17867   2.661   2.669   2.451
  153POPC   O2117868   2.527   2.783   2.565
  153POPC   C2117869   2.436   2.833   2.487
  153POPC   O2217870   2.440   2.847   2.366
  153POPC   C2217871   2.318   2.875   2.575
  153POPC   H2R17872   2.266   2.784   2.610
  153POPC   H2S17873   2.249   2.934   2.512
  153POPC    C317874   2.746   2.727   2.641
  153POPC    HX17875   2.841   2.684   2.603
  153POPC    HY17876   2.696   2.649   2.702
  153POPC   O3117877   2.777   2.847   2.715
  153POPC   C3117878   2.713   2.867   2.830
  153POPC   O3217879   2.633   2.790   2.880
  153POPC   C3217880   2.761   2.998   2.894
  153POPC   H2X17881   2.685   3.075   2.870
  153POPC   H2Y17882   2.857   3.029   2.847
  153POPC   C2317883   2.366   2.959   2.696
  153POPC   H3R17884   2.445   3.030   2.665
  153POPC   H3S17885   2.411   2.893   2.773
  153POPC   C2417886   2.252   3.040   2.759
  153POPC   H4R17887   2.180   2.972   2.808
  153POPC   H4S17888   2.197   3.093   2.678
  153POPC   C2517889   2.301   3.146   2.859
  153POPC   H5R17890   2.212   3.202   2.895
  153POPC   H5S17891   2.367   3.219   2.806
  153POPC   C2617892   2.378   3.093   2.983
  153POPC   H6R17893   2.389   3.178   3.053
  153POPC   H6S17894   2.480   3.061   2.952
  153POPC   C2717895   2.310   2.976   3.056
  153POPC   H7R17896   2.335   2.881   3.004
  153POPC   H7S17897   2.200   2.992   3.045
  153POPC   C2817898   2.340   2.963   3.208
  153POPC   H8R17899   2.283   2.873   3.241
  153POPC   H8S17900   2.293   3.051   3.257
  153POPC   C2917901   2.482   2.952   3.256
  153POPC   H9117902   2.547   3.032   3.215
  153POPC  C21017903   2.541   2.864   3.340
  153POPC  H10117904   2.649   2.877   3.358
  153POPC  C21117905   2.484   2.745   3.414
  153POPC  H11R17906   2.550   2.659   3.395
  153POPC  H11S17907   2.384   2.717   3.374
  153POPC  C21217908   2.471   2.758   3.569
  153POPC  H12R17909   2.472   2.656   3.614
  153POPC  H12S17910   2.371   2.799   3.593
  153POPC  C21317911   2.576   2.844   3.641
  153POPC  H13R17912   2.578   2.943   3.591
  153POPC  H13S17913   2.677   2.799   3.630
  153POPC  C21417914   2.545   2.872   3.790
  153POPC  H14R17915   2.439   2.903   3.801
  153POPC  H14S17916   2.609   2.958   3.822
  153POPC  C21517917   2.574   2.759   3.890
  153POPC  H15R17918   2.677   2.722   3.869
  153POPC  H15S17919   2.501   2.677   3.873
  153POPC  C21617920   2.565   2.806   4.037
  153POPC  H16R17921   2.459   2.827   4.061
  153POPC  H16S17922   2.620   2.902   4.044
  153POPC  C21717923   2.625   2.714   4.145
  153POPC  H17R17924   2.568   2.619   4.150
  153POPC  H17S17925   2.610   2.763   4.243
  153POPC  C21817926   2.774   2.683   4.131
  153POPC  H18R17927   2.799   2.645   4.029
  153POPC  H18S17928   2.806   2.606   4.205
  153POPC  H18T17929   2.834   2.775   4.150
  153POPC   C3317930   2.779   2.983   3.046
  153POPC   H3X17931   2.865   2.915   3.066
  153POPC   H3Y17932   2.689   2.934   3.089
  153POPC   C3417933   2.804   3.114   3.123
  153POPC   H4X17934   2.904   3.154   3.096
  153POPC   H4Y17935   2.809   3.088   3.231
  153POPC   C3517936   2.700   3.225   3.102
  153POPC   H5X17937   2.596   3.184   3.105
  153POPC   H5Y17938   2.715   3.268   3.001
  153POPC   C3617939   2.709   3.338   3.207
  153POPC   H6X17940   2.649   3.426   3.174
  153POPC   H6Y17941   2.815   3.369   3.205
  153POPC   C3717942   2.666   3.299   3.350
  153POPC   H7X17943   2.729   3.215   3.385
  153POPC   H7Y17944   2.561   3.264   3.348
  153POPC   C3817945   2.676   3.415   3.452
  153POPC   H8X17946   2.604   3.494   3.423
  153POPC   H8Y17947   2.777   3.461   3.452
  153POPC   C3917948   2.648   3.372   3.597
  153POPC   H9X17949   2.553   3.315   3.599
  153POPC   H9Y17950   2.635   3.463   3.659
  153POPC  C31017951   2.761   3.288   3.660
  153POPC  H10X17952   2.848   3.352   3.684
  153POPC  H10Y17953   2.796   3.211   3.587
  153POPC  C31117954   2.713   3.213   3.785
  153POPC  H11X17955   2.794   3.145   3.820
  153POPC  H11Y17956   2.626   3.151   3.755
  153POPC  C31217957   2.670   3.305   3.900
  153POPC  H12X17958   2.591   3.374   3.863
  153POPC  H12Y17959   2.757   3.366   3.931
  153POPC  C31317960   2.613   3.228   4.020
  153POPC  H13X17961   2.527   3.167   3.985
  153POPC  H13Y17962   2.572   3.301   4.093
  153POPC  C31417963   2.713   3.135   4.091
  153POPC  H14X17964   2.746   3.056   4.020
  153POPC  H14Y17965   2.660   3.086   4.176
  153POPC  C31517966   2.839   3.202   4.144
  153POPC  H15X17967   2.910   3.217   4.060
  153POPC  H15Y17968   2.887   3.133   4.217
  153POPC  C31617969   2.816   3.336   4.212
  153POPC  H16X17970   2.906   3.366   4.271
  153POPC  H16Y17971   2.729   3.328   4.281
  153POPC  H16Z17972   2.794   3.416   4.138
  154POPC     N17973   4.603   2.875   2.328
  154POPC   C1217974   4.694   2.981   2.389
  154POPC  H12A17975   4.649   3.020   2.479
  154POPC  H12B17976   4.704   3.062   2.319
  154POPC   C1317977   4.654   2.838   2.192
  154POPC  H13A17978   4.594   2.762   2.144
  154POPC  H13B17979   4.661   2.924   2.126
  154POPC  H13C17980   4.754   2.800   2.203
  154POPC   C1417981   4.609   2.749   2.410
  154POPC  H14A17982   4.712   2.719   2.420
  154POPC  H14B17983   4.570   2.764   2.510
  154POPC  H14C17984   4.557   2.667   2.364
  154POPC   C1517985   4.462   2.923   2.315
  154POPC  H15A17986   4.419   2.946   2.412
  154POPC  H15B17987   4.400   2.847   2.269
  154POPC  H15C17988   4.456   3.011   2.253
  154POPC   C1117989   4.837   2.936   2.425
  154POPC  H11A17990   4.832   2.869   2.513
  154POPC  H11B17991   4.897   3.024   2.456
  154POPC     P17992   5.022   2.774   2.337
  154POPC   O1317993   5.110   2.791   2.221
  154POPC   O1417994   4.967   2.637   2.360
  154POPC   O1217995   4.900   2.873   2.312
  154POPC   O1117996   5.079   2.837   2.468
  154POPC    C117997   5.151   2.774   2.573
  154POPC    HA17998   5.183   2.854   2.643
  154POPC    HB17999   5.244   2.726   2.535
  154POPC    C218000   5.070   2.675   2.661
  154POPC    HS18001   5.070   2.578   2.607
  154POPC   O2118002   4.934   2.722   2.676
  154POPC   C2118003   4.854   2.638   2.737
  154POPC   O2218004   4.872   2.519   2.752
  154POPC   C2218005   4.728   2.714   2.780
  154POPC   H2R18006   4.649   2.689   2.706
  154POPC   H2S18007   4.748   2.823   2.777
  154POPC    C318008   5.137   2.654   2.801
  154POPC    HX18009   5.247   2.648   2.785
  154POPC    HY18010   5.103   2.557   2.843
  154POPC   O3118011   5.103   2.762   2.890
  154POPC   C3118012   5.167   2.761   3.006
  154POPC   O3218013   5.254   2.682   3.037
  154POPC   C3218014   5.109   2.870   3.097
  154POPC   H2X18015   5.033   2.819   3.161
  154POPC   H2Y18016   5.056   2.946   3.035
  154POPC   C2318017   4.679   2.673   2.921
  154POPC   H3R18018   4.676   2.562   2.930
  154POPC   H3S18019   4.575   2.710   2.934
  154POPC   C2418020   4.763   2.731   3.036
  154POPC   H4R18021   4.769   2.841   3.027
  154POPC   H4S18022   4.865   2.689   3.031
  154POPC   C2518023   4.699   2.694   3.171
  154POPC   H5R18024   4.690   2.583   3.172
  154POPC   H5S18025   4.597   2.737   3.176
  154POPC   C2618026   4.776   2.733   3.298
  154POPC   H6R18027   4.706   2.730   3.384
  154POPC   H6S18028   4.815   2.837   3.288
  154POPC   C2718029   4.891   2.636   3.329
  154POPC   H7R18030   4.965   2.641   3.246
  154POPC   H7S18031   4.852   2.532   3.330
  154POPC   C2818032   4.958   2.664   3.465
  154POPC   H8R18033   4.889   2.635   3.547
  154POPC   H8S18034   4.977   2.773   3.474
  154POPC   C2918035   5.088   2.588   3.472
  154POPC   H9118036   5.120   2.544   3.376
  154POPC  C21018037   5.169   2.573   3.578
  154POPC  H10118038   5.263   2.517   3.563
  154POPC  C21118039   5.151   2.632   3.715
  154POPC  H11R18040   5.157   2.554   3.795
  154POPC  H11S18041   5.050   2.678   3.724
  154POPC  C21218042   5.259   2.739   3.738
  154POPC  H12R18043   5.285   2.785   3.641
  154POPC  H12S18044   5.353   2.694   3.778
  154POPC  C21318045   5.211   2.855   3.825
  154POPC  H13R18046   5.102   2.861   3.808
  154POPC  H13S18047   5.257   2.949   3.790
  154POPC  C21418048   5.239   2.843   3.975
  154POPC  H14R18049   5.340   2.799   3.989
  154POPC  H14S18050   5.168   2.770   4.020
  154POPC  C21518051   5.234   2.975   4.056
  154POPC  H15R18052   5.336   3.018   4.056
  154POPC  H15S18053   5.211   2.948   4.162
  154POPC  C21618054   5.139   3.089   4.012
  154POPC  H16R18055   5.197   3.158   3.947
  154POPC  H16S18056   5.113   3.146   4.104
  154POPC  C21718057   5.009   3.054   3.938
  154POPC  H17R18058   4.971   2.957   3.978
  154POPC  H17S18059   5.031   3.041   3.830
  154POPC  C21818060   4.898   3.159   3.944
  154POPC  H18R18061   4.798   3.111   3.944
  154POPC  H18S18062   4.903   3.227   3.856
  154POPC  H18T18063   4.909   3.219   4.037
  154POPC   C3318064   5.214   2.938   3.187
  154POPC   H3X18065   5.255   3.027   3.135
  154POPC   H3Y18066   5.299   2.869   3.204
  154POPC   C3418067   5.161   2.978   3.326
  154POPC   H4X18068   5.241   3.036   3.378
  154POPC   H4Y18069   5.144   2.886   3.386
  154POPC   C3518070   5.033   3.062   3.327
  154POPC   H5X18071   4.947   2.998   3.296
  154POPC   H5Y18072   5.042   3.145   3.254
  154POPC   C3618073   5.007   3.120   3.467
  154POPC   H6X18074   5.084   3.199   3.483
  154POPC   H6Y18075   5.026   3.042   3.544
  154POPC   C3718076   4.868   3.182   3.487
  154POPC   H7X18077   4.844   3.245   3.399
  154POPC   H7Y18078   4.871   3.248   3.576
  154POPC   C3818079   4.756   3.078   3.508
  154POPC   H8X18080   4.753   3.008   3.422
  154POPC   H8Y18081   4.659   3.132   3.510
  154POPC   C3918082   4.770   3.000   3.639
  154POPC   H9X18083   4.774   3.073   3.723
  154POPC   H9Y18084   4.864   2.942   3.639
  154POPC  C31018085   4.652   2.904   3.664
  154POPC  H10X18086   4.650   2.826   3.585
  154POPC  H10Y18087   4.558   2.964   3.659
  154POPC  C31118088   4.652   2.838   3.802
  154POPC  H11X18089   4.562   2.774   3.811
  154POPC  H11Y18090   4.644   2.918   3.880
  154POPC  C31218091   4.776   2.754   3.833
  154POPC  H12X18092   4.867   2.816   3.823
  154POPC  H12Y18093   4.784   2.670   3.761
  154POPC  C31318094   4.769   2.700   3.975
  154POPC  H13X18095   4.685   2.628   3.985
  154POPC  H13Y18096   4.748   2.785   4.044
  154POPC  C31418097   4.900   2.635   4.021
  154POPC  H14X18098   4.981   2.710   4.012
  154POPC  H14Y18099   4.926   2.550   3.954
  154POPC  C31518100   4.889   2.589   4.166
  154POPC  H15X18101   4.806   2.516   4.173
  154POPC  H15Y18102   4.861   2.677   4.227
  154POPC  C31618103   5.014   2.525   4.225
  154POPC  H16X18104   5.104   2.585   4.203
  154POPC  H16Y18105   5.027   2.423   4.182
  154POPC  H16Z18106   5.003   2.514   4.335
  155POPC     N18107   3.312   2.358   2.297
  155POPC   C1218108   3.308   2.475   2.395
  155POPC  H12A18109   3.382   2.547   2.365
  155POPC  H12B18110   3.334   2.441   2.494
  155POPC   C1318111   3.188   2.277   2.317
  155POPC  H13A18112   3.187   2.232   2.416
  155POPC  H13B18113   3.103   2.343   2.310
  155POPC  H13C18114   3.178   2.199   2.242
  155POPC   C1418115   3.316   2.413   2.158
  155POPC  H14A18116   3.234   2.482   2.146
  155POPC  H14B18117   3.407   2.469   2.139
  155POPC  H14C18118   3.309   2.336   2.082
  155POPC   C1518119   3.431   2.271   2.317
  155POPC  H15A18120   3.438   2.197   2.240
  155POPC  H15B18121   3.428   2.224   2.414
  155POPC  H15C18122   3.523   2.327   2.311
  155POPC   C1118123   3.171   2.549   2.403
  155POPC  H11A18124   3.188   2.646   2.455
  155POPC  H11B18125   3.100   2.491   2.465
  155POPC     P18126   3.002   2.667   2.235
  155POPC   O1318127   2.882   2.632   2.312
  155POPC   O1418128   2.989   2.666   2.087
  155POPC   O1218129   3.118   2.568   2.272
  155POPC   O1118130   3.056   2.806   2.278
  155POPC    C118131   3.188   2.850   2.249
  155POPC    HA18132   3.180   2.929   2.171
  155POPC    HB18133   3.255   2.771   2.208
  155POPC    C218134   3.254   2.915   2.374
  155POPC    HS18135   3.297   3.010   2.335
  155POPC   O2118136   3.355   2.827   2.429
  155POPC   C2118137   3.462   2.890   2.475
  155POPC   O2218138   3.493   3.005   2.448
  155POPC   C2218139   3.546   2.795   2.561
  155POPC   H2R18140   3.647   2.841   2.573
  155POPC   H2S18141   3.556   2.697   2.509
  155POPC    C318142   3.148   2.953   2.482
  155POPC    HX18143   3.058   2.990   2.428
  155POPC    HY18144   3.187   3.042   2.537
  155POPC   O3118145   3.108   2.845   2.569
  155POPC   C3118146   3.148   2.856   2.696
  155POPC   O3218147   3.229   2.936   2.737
  155POPC   C3218148   3.084   2.748   2.781
  155POPC   H2X18149   3.127   2.650   2.752
  155POPC   H2Y18150   2.975   2.746   2.757
  155POPC   C2318151   3.482   2.776   2.699
  155POPC   H3R18152   3.384   2.725   2.689
  155POPC   H3S18153   3.462   2.877   2.742
  155POPC   C2418154   3.564   2.701   2.805
  155POPC   H4R18155   3.664   2.749   2.815
  155POPC   H4S18156   3.579   2.595   2.775
  155POPC   C2518157   3.490   2.709   2.939
  155POPC   H5R18158   3.393   2.656   2.930
  155POPC   H5S18159   3.468   2.816   2.960
  155POPC   C2618160   3.566   2.653   3.060
  155POPC   H6R18161   3.669   2.693   3.062
  155POPC   H6S18162   3.572   2.542   3.051
  155POPC   C2718163   3.493   2.690   3.190
  155POPC   H7R18164   3.386   2.666   3.177
  155POPC   H7S18165   3.500   2.800   3.208
  155POPC   C2818166   3.542   2.613   3.313
  155POPC   H8R18167   3.537   2.505   3.285
  155POPC   H8S18168   3.469   2.629   3.395
  155POPC   C2918169   3.682   2.647   3.360
  155POPC   H9118170   3.743   2.705   3.290
  155POPC  C21018171   3.733   2.611   3.480
  155POPC  H10118172   3.835   2.642   3.506
  155POPC  C21118173   3.660   2.532   3.585
  155POPC  H11R18174   3.718   2.440   3.610
  155POPC  H11S18175   3.561   2.498   3.549
  155POPC  C21218176   3.635   2.608   3.717
  155POPC  H12R18177   3.732   2.623   3.770
  155POPC  H12S18178   3.572   2.544   3.782
  155POPC  C21318179   3.565   2.743   3.698
  155POPC  H13R18180   3.487   2.734   3.619
  155POPC  H13S18181   3.639   2.818   3.663
  155POPC  C21418182   3.498   2.795   3.826
  155POPC  H14R18183   3.407   2.734   3.846
  155POPC  H14S18184   3.465   2.900   3.810
  155POPC  C21518185   3.587   2.791   3.951
  155POPC  H15R18186   3.679   2.851   3.933
  155POPC  H15S18187   3.617   2.686   3.970
  155POPC  C21618188   3.516   2.844   4.076
  155POPC  H16R18189   3.410   2.812   4.072
  155POPC  H16S18190   3.517   2.955   4.075
  155POPC  C21718191   3.580   2.791   4.205
  155POPC  H17R18192   3.687   2.818   4.207
  155POPC  H17S18193   3.575   2.680   4.203
  155POPC  C21818194   3.512   2.841   4.332
  155POPC  H18R18195   3.526   2.951   4.343
  155POPC  H18S18196   3.555   2.791   4.421
  155POPC  H18T18197   3.403   2.820   4.329
  155POPC   C3318198   3.099   2.774   2.932
  155POPC   H3X18199   3.067   2.876   2.959
  155POPC   H3Y18200   3.206   2.764   2.960
  155POPC   C3418201   3.016   2.672   3.010
  155POPC   H4X18202   3.032   2.574   2.961
  155POPC   H4Y18203   2.908   2.695   3.002
  155POPC   C3518204   3.058   2.657   3.157
  155POPC   H5X18205   3.158   2.703   3.172
  155POPC   H5Y18206   3.068   2.549   3.179
  155POPC   C3618207   2.960   2.717   3.258
  155POPC   H6X18208   2.855   2.694   3.227
  155POPC   H6Y18209   2.970   2.828   3.260
  155POPC   C3718210   2.982   2.660   3.399
  155POPC   H7X18211   2.953   2.553   3.400
  155POPC   H7Y18212   2.914   2.713   3.470
  155POPC   C3818213   3.127   2.671   3.448
  155POPC   H8X18214   3.155   2.778   3.455
  155POPC   H8Y18215   3.196   2.624   3.375
  155POPC   C3918216   3.151   2.601   3.583
  155POPC   H9X18217   3.256   2.620   3.614
  155POPC   H9Y18218   3.139   2.492   3.569
  155POPC  C31018219   3.057   2.648   3.695
  155POPC  H10X18220   3.086   2.593   3.787
  155POPC  H10Y18221   2.952   2.619   3.671
  155POPC  C31118222   3.062   2.799   3.719
  155POPC  H11X18223   3.028   2.850   3.626
  155POPC  H11Y18224   3.167   2.830   3.738
  155POPC  C31218225   2.973   2.849   3.834
  155POPC  H12X18226   2.885   2.782   3.842
  155POPC  H12Y18227   2.937   2.951   3.809
  155POPC  C31318228   3.046   2.857   3.969
  155POPC  H13X18229   2.974   2.891   4.046
  155POPC  H13Y18230   3.126   2.934   3.963
  155POPC  C31418231   3.110   2.725   4.011
  155POPC  H14X18232   3.196   2.705   3.943
  155POPC  H14Y18233   3.037   2.642   3.998
  155POPC  C31518234   3.162   2.723   4.154
  155POPC  H15X18235   3.076   2.722   4.225
  155POPC  H15Y18236   3.220   2.816   4.173
  155POPC  C31618237   3.251   2.602   4.180
  155POPC  H16X18238   3.301   2.612   4.279
  155POPC  H16Y18239   3.330   2.594   4.103
  155POPC  H16Z18240   3.192   2.508   4.179
  156POPC     N18241   3.358   5.380   2.411
  156POPC   C1218242   3.348   5.413   2.263
  156POPC  H12A18243   3.248   5.447   2.241
  156POPC  H12B18244   3.364   5.323   2.205
  156POPC   C1318245   3.369   5.507   2.490
  156POPC  H13A18246   3.377   5.488   2.596
  156POPC  H13B18247   3.458   5.560   2.459
  156POPC  H13C18248   3.284   5.571   2.471
  156POPC   C1418249   3.238   5.302   2.454
  156POPC  H14A18250   3.231   5.209   2.400
  156POPC  H14B18251   3.240   5.281   2.560
  156POPC  H14C18252   3.147   5.357   2.433
  156POPC   C1518253   3.483   5.300   2.435
  156POPC  H15A18254   3.482   5.207   2.381
  156POPC  H15B18255   3.500   5.280   2.540
  156POPC  H15C18256   3.568   5.356   2.398
  156POPC   C1118257   3.445   5.522   2.209
  156POPC  H11A18258   3.411   5.620   2.249
  156POPC  H11B18259   3.434   5.527   2.098
  156POPC     P18260   3.686   5.612   2.256
  156POPC   O1318261   3.623   5.738   2.209
  156POPC   O1418262   3.810   5.568   2.190
  156POPC   O1218263   3.581   5.493   2.243
  156POPC   O1118264   3.707   5.624   2.413
  156POPC    C118265   3.842   5.652   2.456
  156POPC    HA18266   3.887   5.737   2.401
  156POPC    HB18267   3.906   5.563   2.435
  156POPC    C218268   3.858   5.681   2.610
  156POPC    HS18269   3.959   5.647   2.640
  156POPC   O2118270   3.756   5.617   2.689
  156POPC   C2118271   3.771   5.487   2.696
  156POPC   O2218272   3.849   5.420   2.629
  156POPC   C2218273   3.690   5.435   2.815
  156POPC   H2R18274   3.741   5.474   2.906
  156POPC   H2S18275   3.696   5.324   2.816
  156POPC    C318276   3.853   5.832   2.643
  156POPC    HX18277   3.749   5.870   2.627
  156POPC    HY18278   3.918   5.884   2.570
  156POPC   O3118279   3.905   5.858   2.776
  156POPC   C3118280   3.815   5.869   2.873
  156POPC   O3218281   3.694   5.866   2.859
  156POPC   C3218282   3.886   5.896   3.007
  156POPC   H2X18283   3.811   5.943   3.075
  156POPC   H2Y18284   3.966   5.970   2.987
  156POPC   C2318285   3.541   5.473   2.819
  156POPC   H3R18286   3.488   5.411   2.744
  156POPC   H3S18287   3.525   5.579   2.793
  156POPC   C2418288   3.484   5.442   2.958
  156POPC   H4R18289   3.540   5.356   3.002
  156POPC   H4S18290   3.379   5.406   2.949
  156POPC   C2518291   3.488   5.559   3.058
  156POPC   H5R18292   3.594   5.578   3.087
  156POPC   H5S18293   3.437   5.527   3.151
  156POPC   C2618294   3.427   5.693   3.011
  156POPC   H6R18295   3.330   5.675   2.960
  156POPC   H6S18296   3.495   5.739   2.935
  156POPC   C2718297   3.404   5.795   3.123
  156POPC   H7R18298   3.332   5.754   3.198
  156POPC   H7S18299   3.357   5.885   3.078
  156POPC   C2818300   3.535   5.834   3.193
  156POPC   H8R18301   3.609   5.853   3.113
  156POPC   H8S18302   3.568   5.743   3.247
  156POPC   C2918303   3.532   5.954   3.285
  156POPC   H9118304   3.497   6.047   3.237
  156POPC  C21018305   3.567   5.958   3.415
  156POPC  H10118306   3.559   6.053   3.470
  156POPC  C21118307   3.617   5.841   3.497
  156POPC  H11R18308   3.656   5.759   3.432
  156POPC  H11S18309   3.530   5.800   3.552
  156POPC  C21218310   3.727   5.866   3.603
  156POPC  H12R18311   3.690   5.941   3.676
  156POPC  H12S18312   3.818   5.906   3.554
  156POPC  C21318313   3.761   5.735   3.677
  156POPC  H13R18314   3.814   5.667   3.607
  156POPC  H13S18315   3.665   5.687   3.706
  156POPC  C21418316   3.841   5.752   3.806
  156POPC  H14R18317   3.781   5.816   3.874
  156POPC  H14S18318   3.938   5.802   3.786
  156POPC  C21518319   3.865   5.618   3.879
  156POPC  H15R18320   3.926   5.551   3.814
  156POPC  H15S18321   3.767   5.569   3.896
  156POPC  C21618322   3.935   5.637   4.014
  156POPC  H16R18323   3.879   5.711   4.075
  156POPC  H16S18324   4.035   5.681   3.994
  156POPC  C21718325   3.952   5.507   4.094
  156POPC  H17R18326   4.026   5.525   4.175
  156POPC  H17S18327   3.994   5.429   4.027
  156POPC  C21818328   3.822   5.456   4.157
  156POPC  H18R18329   3.781   5.532   4.227
  156POPC  H18S18330   3.840   5.363   4.215
  156POPC  H18T18331   3.745   5.435   4.080
  156POPC   C3318332   3.947   5.771   3.074
  156POPC   H3X18333   4.011   5.804   3.159
  156POPC   H3Y18334   4.013   5.719   3.001
  156POPC   C3418335   3.842   5.672   3.129
  156POPC   H4X18336   3.781   5.639   3.043
  156POPC   H4Y18337   3.778   5.727   3.201
  156POPC   C3518338   3.899   5.548   3.202
  156POPC   H5X18339   3.949   5.581   3.296
  156POPC   H5Y18340   3.975   5.501   3.137
  156POPC   C3618341   3.797   5.438   3.237
  156POPC   H6X18342   3.853   5.348   3.270
  156POPC   H6Y18343   3.741   5.411   3.145
  156POPC   C3718344   3.700   5.478   3.348
  156POPC   H7X18345   3.651   5.573   3.318
  156POPC   H7Y18346   3.756   5.498   3.442
  156POPC   C3818347   3.588   5.376   3.375
  156POPC   H8X18348   3.626   5.296   3.442
  156POPC   H8Y18349   3.559   5.329   3.278
  156POPC   C3918350   3.462   5.441   3.435
  156POPC   H9X18351   3.383   5.363   3.448
  156POPC   H9Y18352   3.423   5.517   3.364
  156POPC  C31018353   3.487   5.510   3.570
  156POPC  H10X18354   3.576   5.576   3.559
  156POPC  H10Y18355   3.512   5.432   3.644
  156POPC  C31118356   3.369   5.597   3.617
  156POPC  H11X18357   3.279   5.533   3.619
  156POPC  H11Y18358   3.349   5.677   3.543
  156POPC  C31218359   3.386   5.661   3.757
  156POPC  H12X18360   3.287   5.696   3.792
  156POPC  H12Y18361   3.452   5.751   3.751
  156POPC  C31318362   3.445   5.563   3.859
  156POPC  H13X18363   3.552   5.545   3.837
  156POPC  H13Y18364   3.391   5.467   3.844
  156POPC  C31418365   3.428   5.598   4.007
  156POPC  H14X18366   3.465   5.512   4.067
  156POPC  H14Y18367   3.321   5.610   4.031
  156POPC  C31518368   3.506   5.723   4.052
  156POPC  H15X18369   3.459   5.813   4.008
  156POPC  H15Y18370   3.610   5.716   4.013
  156POPC  C31618371   3.510   5.735   4.204
  156POPC  H16X18372   3.560   5.829   4.235
  156POPC  H16Y18373   3.565   5.650   4.249
  156POPC  H16Z18374   3.407   5.735   4.245
  157POPC     N18375   2.651   5.111   2.399
  157POPC   C1218376   2.601   5.179   2.272
  157POPC  H12A18377   2.495   5.164   2.262
  157POPC  H12B18378   2.646   5.131   2.187
  157POPC   C1318379   2.800   5.120   2.406
  157POPC  H13A18380   2.831   5.222   2.397
  157POPC  H13B18381   2.838   5.081   2.499
  157POPC  H13C18382   2.845   5.065   2.325
  157POPC   C1418383   2.597   5.176   2.523
  157POPC  H14A18384   2.639   5.132   2.612
  157POPC  H14B18385   2.622   5.281   2.526
  157POPC  H14C18386   2.489   5.165   2.529
  157POPC   C1518387   2.613   4.966   2.396
  157POPC  H15A18388   2.506   4.952   2.395
  157POPC  H15B18389   2.647   4.916   2.486
  157POPC  H15C18390   2.655   4.916   2.311
  157POPC   C1118391   2.630   5.330   2.254
  157POPC  H11A18392   2.594   5.384   2.345
  157POPC  H11B18393   2.569   5.368   2.170
  157POPC     P18394   2.861   5.455   2.297
  157POPC   O1318395   2.910   5.554   2.199
  157POPC   O1418396   2.963   5.375   2.367
  157POPC   O1218397   2.768   5.350   2.223
  157POPC   O1118398   2.763   5.519   2.403
  157POPC    C118399   2.745   5.659   2.425
  157POPC    HA18400   2.644   5.690   2.389
  157POPC    HB18401   2.819   5.721   2.371
  157POPC    C218402   2.754   5.692   2.577
  157POPC    HS18403   2.760   5.802   2.591
  157POPC   O2118404   2.869   5.630   2.635
  157POPC   C2118405   2.987   5.666   2.598
  157POPC   O2218406   3.021   5.740   2.507
  157POPC   C2218407   3.086   5.595   2.689
  157POPC   H2R18408   3.184   5.646   2.680
  157POPC   H2S18409   3.095   5.490   2.651
  157POPC    C318410   2.628   5.642   2.655
  157POPC    HX18411   2.585   5.558   2.596
  157POPC    HY18412   2.554   5.724   2.654
  157POPC   O3118413   2.658   5.605   2.792
  157POPC   C3118414   2.644   5.479   2.826
  157POPC   O3218415   2.598   5.389   2.756
  157POPC   C3218416   2.696   5.458   2.969
  157POPC   H2X18417   2.793   5.509   2.981
  157POPC   H2Y18418   2.710   5.348   2.984
  157POPC   C2318419   3.041   5.593   2.837
  157POPC   H3R18420   2.935   5.562   2.847
  157POPC   H3S18421   3.049   5.696   2.879
  157POPC   C2418422   3.127   5.495   2.916
  157POPC   H4R18423   3.228   5.508   2.872
  157POPC   H4S18424   3.096   5.390   2.898
  157POPC   C2518425   3.136   5.526   3.065
  157POPC   H5R18426   3.125   5.635   3.086
  157POPC   H5S18427   3.238   5.497   3.098
  157POPC   C2618428   3.043   5.444   3.154
  157POPC   H6R18429   3.041   5.339   3.116
  157POPC   H6S18430   2.940   5.484   3.149
  157POPC   C2718431   3.094   5.444   3.298
  157POPC   H7R18432   3.090   5.548   3.338
  157POPC   H7S18433   3.200   5.413   3.301
  157POPC   C2818434   3.011   5.354   3.389
  157POPC   H8R18435   2.905   5.385   3.377
  157POPC   H8S18436   3.038   5.373   3.495
  157POPC   C2918437   3.034   5.208   3.356
  157POPC   H9118438   3.138   5.175   3.370
  157POPC  C21018439   2.944   5.120   3.311
  157POPC  H10118440   2.974   5.016   3.293
  157POPC  C21118441   2.800   5.153   3.285
  157POPC  H11R18442   2.764   5.096   3.197
  157POPC  H11S18443   2.791   5.260   3.256
  157POPC  C21218444   2.708   5.126   3.406
  157POPC  H12R18445   2.706   5.017   3.429
  157POPC  H12S18446   2.606   5.156   3.376
  157POPC  C21318447   2.743   5.200   3.536
  157POPC  H13R18448   2.775   5.304   3.513
  157POPC  H13S18449   2.828   5.149   3.586
  157POPC  C21418450   2.622   5.206   3.627
  157POPC  H14R18451   2.594   5.104   3.660
  157POPC  H14S18452   2.534   5.244   3.571
  157POPC  C21518453   2.639   5.291   3.753
  157POPC  H15R18454   2.659   5.396   3.721
  157POPC  H15S18455   2.728   5.256   3.810
  157POPC  C21618456   2.513   5.283   3.838
  157POPC  H16R18457   2.499   5.176   3.863
  157POPC  H16S18458   2.424   5.314   3.778
  157POPC  C21718459   2.511   5.358   3.971
  157POPC  H17R18460   2.496   5.466   3.953
  157POPC  H17S18461   2.608   5.345   4.024
  157POPC  C21818462   2.397   5.304   4.058
  157POPC  H18R18463   2.368   5.377   4.136
  157POPC  H18S18464   2.427   5.208   4.106
  157POPC  H18T18465   2.308   5.282   3.995
  157POPC   C3318466   2.598   5.513   3.074
  157POPC   H3X18467   2.500   5.462   3.057
  157POPC   H3Y18468   2.584   5.622   3.061
  157POPC   C3418469   2.639   5.483   3.219
  157POPC   H4X18470   2.745   5.511   3.238
  157POPC   H4Y18471   2.627   5.374   3.234
  157POPC   C3518472   2.550   5.554   3.322
  157POPC   H5X18473   2.451   5.570   3.275
  157POPC   H5Y18474   2.592   5.653   3.348
  157POPC   C3618475   2.526   5.467   3.445
  157POPC   H6X18476   2.624   5.436   3.486
  157POPC   H6Y18477   2.474   5.375   3.410
  157POPC   C3718478   2.441   5.530   3.556
  157POPC   H7X18479   2.388   5.448   3.609
  157POPC   H7Y18480   2.361   5.592   3.511
  157POPC   C3818481   2.518   5.611   3.663
  157POPC   H8X18482   2.518   5.552   3.757
  157POPC   H8Y18483   2.458   5.702   3.685
  157POPC   C3918484   2.664   5.651   3.634
  157POPC   H9X18485   2.668   5.713   3.542
  157POPC   H9Y18486   2.727   5.561   3.615
  157POPC  C31018487   2.726   5.729   3.750
  157POPC  H10X18488   2.653   5.731   3.834
  157POPC  H10Y18489   2.742   5.834   3.716
  157POPC  C31118490   2.860   5.675   3.803
  157POPC  H11X18491   2.916   5.757   3.852
  157POPC  H11Y18492   2.920   5.641   3.716
  157POPC  C31218493   2.845   5.558   3.903
  157POPC  H12X18494   2.942   5.503   3.905
  157POPC  H12Y18495   2.768   5.487   3.865
  157POPC  C31318496   2.809   5.594   4.048
  157POPC  H13X18497   2.814   5.501   4.109
  157POPC  H13Y18498   2.704   5.629   4.052
  157POPC  C31418499   2.900   5.700   4.114
  157POPC  H14X18500   2.875   5.709   4.222
  157POPC  H14Y18501   2.877   5.797   4.066
  157POPC  C31518502   3.051   5.676   4.098
  157POPC  H15X18503   3.073   5.649   3.993
  157POPC  H15Y18504   3.083   5.591   4.162
  157POPC  C31618505   3.134   5.800   4.131
  157POPC  H16X18506   3.073   5.892   4.119
  157POPC  H16Y18507   3.221   5.806   4.063
  157POPC  H16Z18508   3.173   5.798   4.235
  158POPC     N18509   5.796   4.925   2.374
  158POPC   C1218510   5.801   5.069   2.416
  158POPC  H12A18511   5.839   5.128   2.334
  158POPC  H12B18512   5.871   5.082   2.498
  158POPC   C1318513   5.692   4.907   2.268
  158POPC  H13A18514   5.681   4.803   2.238
  158POPC  H13B18515   5.600   4.951   2.301
  158POPC  H13C18516   5.721   4.964   2.180
  158POPC   C1418517   5.927   4.890   2.315
  158POPC  H14A18518   6.008   4.896   2.386
  158POPC  H14B18519   5.929   4.788   2.278
  158POPC  H14C18520   5.950   4.953   2.231
  158POPC   C1518521   5.764   4.837   2.490
  158POPC  H15A18522   5.841   4.844   2.566
  158POPC  H15B18523   5.756   4.734   2.460
  158POPC  H15C18524   5.670   4.866   2.534
  158POPC   C1118525   5.666   5.131   2.453
  158POPC  H11A18526   5.689   5.227   2.504
  158POPC  H11B18527   5.611   5.069   2.526
  158POPC     P18528   5.630   5.264   2.232
  158POPC   O1318529   5.523   5.273   2.131
  158POPC   O1418530   5.767   5.234   2.183
  158POPC   O1218531   5.586   5.151   2.335
  158POPC   O1118532   5.632   5.391   2.326
  158POPC    C118533   5.520   5.414   2.413
  158POPC    HA18534   5.460   5.323   2.433
  158POPC    HB18535   5.452   5.487   2.364
  158POPC    C218536   5.555   5.472   2.554
  158POPC    HS18537   5.558   5.582   2.539
  158POPC   O2118538   5.677   5.418   2.610
  158POPC   C2118539   5.778   5.505   2.621
  158POPC   O2218540   5.779   5.617   2.577
  158POPC   C2218541   5.896   5.443   2.697
  158POPC   H2R18542   5.974   5.522   2.698
  158POPC   H2S18543   5.935   5.356   2.639
  158POPC    C318544   5.439   5.440   2.653
  158POPC    HX18545   5.342   5.458   2.602
  158POPC    HY18546   5.449   5.517   2.733
  158POPC   O3118547   5.444   5.303   2.701
  158POPC   C3118548   5.416   5.294   2.831
  158POPC   O3218549   5.367   5.382   2.899
  158POPC   C3218550   5.448   5.154   2.882
  158POPC   H2X18551   5.547   5.123   2.842
  158POPC   H2Y18552   5.371   5.085   2.840
  158POPC   C2318553   5.864   5.403   2.843
  158POPC   H3R18554   5.799   5.479   2.891
  158POPC   H3S18555   5.959   5.403   2.901
  158POPC   C2418556   5.802   5.264   2.854
  158POPC   H4R18557   5.869   5.189   2.806
  158POPC   H4S18558   5.706   5.265   2.798
  158POPC   C2518559   5.775   5.221   2.999
  158POPC   H5R18560   5.712   5.130   2.996
  158POPC   H5S18561   5.720   5.302   3.052
  158POPC   C2618562   5.901   5.184   3.077
  158POPC   H6R18563   5.963   5.274   3.096
  158POPC   H6S18564   5.959   5.114   3.014
  158POPC   C2718565   5.869   5.114   3.210
  158POPC   H7R18566   5.966   5.079   3.249
  158POPC   H7S18567   5.805   5.025   3.191
  158POPC   C2818568   5.807   5.205   3.316
  158POPC   H8R18569   5.705   5.237   3.284
  158POPC   H8S18570   5.870   5.296   3.320
  158POPC   C2918571   5.801   5.137   3.450
  158POPC   H9118572   5.799   5.027   3.448
  158POPC  C21018573   5.797   5.200   3.569
  158POPC  H10118574   5.792   5.142   3.662
  158POPC  C21118575   5.797   5.350   3.585
  158POPC  H11R18576   5.822   5.402   3.490
  158POPC  H11S18577   5.875   5.383   3.657
  158POPC  C21218578   5.658   5.399   3.628
  158POPC  H12R18579   5.579   5.323   3.611
  158POPC  H12S18580   5.634   5.483   3.558
  158POPC  C21318581   5.649   5.452   3.772
  158POPC  H13R18582   5.543   5.472   3.798
  158POPC  H13S18583   5.702   5.549   3.773
  158POPC  C21418584   5.711   5.359   3.878
  158POPC  H14R18585   5.814   5.330   3.847
  158POPC  H14S18586   5.651   5.266   3.885
  158POPC  C21518587   5.726   5.424   4.016
  158POPC  H15R18588   5.784   5.354   4.081
  158POPC  H15S18589   5.625   5.436   4.062
  158POPC  C21618590   5.798   5.559   4.011
  158POPC  H16R18591   5.723   5.640   3.994
  158POPC  H16S18592   5.867   5.561   3.924
  158POPC  C21718593   5.880   5.591   4.136
  158POPC  H17R18594   5.987   5.567   4.114
  158POPC  H17S18595   5.847   5.524   4.218
  158POPC  C21818596   5.870   5.735   4.185
  158POPC  H18R18597   5.847   5.805   4.101
  158POPC  H18S18598   5.963   5.768   4.234
  158POPC  H18T18599   5.786   5.744   4.258
  158POPC   C3318600   5.446   5.146   3.036
  158POPC   H3X18601   5.354   5.193   3.077
  158POPC   H3Y18602   5.529   5.206   3.079
  158POPC   C3418603   5.456   5.002   3.086
  158POPC   H4X18604   5.535   4.949   3.029
  158POPC   H4Y18605   5.360   4.949   3.068
  158POPC   C3518606   5.493   4.993   3.235
  158POPC   H5X18607   5.592   5.041   3.250
  158POPC   H5Y18608   5.502   4.886   3.264
  158POPC   C3618609   5.392   5.061   3.328
  158POPC   H6X18610   5.295   5.007   3.323
  158POPC   H6Y18611   5.375   5.166   3.294
  158POPC   C3718612   5.439   5.068   3.474
  158POPC   H7X18613   5.532   5.129   3.479
  158POPC   H7Y18614   5.461   4.966   3.511
  158POPC   C3818615   5.332   5.134   3.561
  158POPC   H8X18616   5.238   5.077   3.549
  158POPC   H8Y18617   5.315   5.238   3.525
  158POPC   C3918618   5.364   5.138   3.710
  158POPC   H9X18619   5.289   5.202   3.760
  158POPC   H9Y18620   5.464   5.184   3.728
  158POPC  C31018621   5.359   4.999   3.775
  158POPC  H10X18622   5.455   4.947   3.752
  158POPC  H10Y18623   5.277   4.940   3.730
  158POPC  C31118624   5.339   5.006   3.926
  158POPC  H11X18625   5.359   4.905   3.970
  158POPC  H11Y18626   5.233   5.031   3.948
  158POPC  C31218627   5.429   5.110   3.993
  158POPC  H12X18628   5.398   5.213   3.964
  158POPC  H12Y18629   5.533   5.095   3.956
  158POPC  C31318630   5.428   5.100   4.145
  158POPC  H13X18631   5.458   4.996   4.172
  158POPC  H13Y18632   5.324   5.116   4.183
  158POPC  C31418633   5.521   5.200   4.212
  158POPC  H14X18634   5.475   5.301   4.216
  158POPC  H14Y18635   5.614   5.208   4.151
  158POPC  C31518636   5.562   5.153   4.352
  158POPC  H15X18637   5.591   5.046   4.341
  158POPC  H15Y18638   5.474   5.157   4.420
  158POPC  C31618639   5.679   5.230   4.410
  158POPC  H16X18640   5.653   5.337   4.424
  158POPC  H16Y18641   5.767   5.225   4.342
  158POPC  H16Z18642   5.709   5.188   4.509
  159POPC     N18643   3.193   5.990   2.214
  159POPC   C1218644   3.136   6.132   2.215
  159POPC  H12A18645   3.139   6.173   2.115
  159POPC  H12B18646   3.202   6.193   2.276
  159POPC   C1318647   3.095   5.891   2.158
  159POPC  H13A18648   3.139   5.793   2.144
  159POPC  H13B18649   3.016   5.878   2.230
  159POPC  H13C18650   3.047   5.925   2.067
  159POPC   C1418651   3.328   5.989   2.150
  159POPC  H14A18652   3.378   5.894   2.161
  159POPC  H14B18653   3.326   6.014   2.045
  159POPC  H14C18654   3.393   6.063   2.196
  159POPC   C1518655   3.211   5.951   2.357
  159POPC  H15A18656   3.241   5.847   2.368
  159POPC  H15B18657   3.117   5.964   2.409
  159POPC  H15C18658   3.282   6.017   2.405
  159POPC   C1118659   2.994   6.153   2.272
  159POPC  H11A18660   2.920   6.094   2.215
  159POPC  H11B18661   2.969   6.261   2.259
  159POPC     P18662   2.865   6.156   2.498
  159POPC   O1318663   2.814   6.032   2.562
  159POPC   O1418664   2.773   6.234   2.412
  159POPC   O1218665   2.991   6.117   2.410
  159POPC   O1118666   2.932   6.249   2.607
  159POPC    C118667   2.985   6.377   2.569
  159POPC    HA18668   2.904   6.453   2.573
  159POPC    HB18669   3.025   6.376   2.466
  159POPC    C218670   3.102   6.423   2.663
  159POPC    HS18671   3.163   6.498   2.607
  159POPC   O2118672   3.185   6.314   2.705
  159POPC   C2118673   3.231   6.233   2.613
  159POPC   O2218674   3.253   6.262   2.496
  159POPC   C2218675   3.266   6.097   2.676
  159POPC   H2R18676   3.374   6.096   2.702
  159POPC   H2S18677   3.247   6.021   2.598
  159POPC    C318678   3.050   6.491   2.792
  159POPC    HX18679   2.987   6.578   2.764
  159POPC    HY18680   3.138   6.531   2.846
  159POPC   O3118681   2.984   6.395   2.878
  159POPC   C3118682   2.854   6.409   2.894
  159POPC   O3218683   2.787   6.503   2.856
  159POPC   C3218684   2.802   6.294   2.982
  159POPC   H2X18685   2.718   6.335   3.041
  159POPC   H2Y18686   2.882   6.263   3.052
  159POPC   C2318687   3.181   6.058   2.799
  159POPC   H3R18688   3.175   5.948   2.806
  159POPC   H3S18689   3.077   6.095   2.787
  159POPC   C2418690   3.241   6.110   2.931
  159POPC   H4R18691   3.255   6.220   2.922
  159POPC   H4S18692   3.340   6.063   2.948
  159POPC   C2518693   3.147   6.081   3.049
  159POPC   H5R18694   3.125   5.973   3.052
  159POPC   H5S18695   3.051   6.134   3.029
  159POPC   C2618696   3.201   6.124   3.186
  159POPC   H6R18697   3.276   6.049   3.220
  159POPC   H6S18698   3.117   6.123   3.259
  159POPC   C2718699   3.264   6.263   3.193
  159POPC   H7R18700   3.349   6.267   3.122
  159POPC   H7S18701   3.305   6.279   3.295
  159POPC   C2818702   3.166   6.377   3.161
  159POPC   H8R18703   3.088   6.378   3.241
  159POPC   H8S18704   3.112   6.352   3.067
  159POPC   C2918705   3.236   6.509   3.146
  159POPC   H9118706   3.285   6.525   3.049
  159POPC  C21018707   3.242   6.605   3.239
  159POPC  H10118708   3.295   6.699   3.218
  159POPC  C21118709   3.179   6.595   3.375
  159POPC  H11R18710   3.230   6.661   3.448
  159POPC  H11S18711   3.192   6.491   3.414
  159POPC  C21218712   3.028   6.627   3.374
  159POPC  H12R18713   2.984   6.606   3.275
  159POPC  H12S18714   3.013   6.735   3.395
  159POPC  C21318715   2.951   6.542   3.475
  159POPC  H13R18716   2.961   6.435   3.446
  159POPC  H13S18717   2.843   6.567   3.469
  159POPC  C21418718   3.002   6.558   3.619
  159POPC  H14R18719   3.016   6.666   3.642
  159POPC  H14S18720   3.102   6.509   3.627
  159POPC  C21518721   2.909   6.497   3.725
  159POPC  H15R18722   2.828   6.569   3.748
  159POPC  H15S18723   2.967   6.482   3.818
  159POPC  C21618724   2.844   6.365   3.681
  159POPC  H16R18725   2.922   6.291   3.652
  159POPC  H16S18726   2.780   6.383   3.591
  159POPC  C21718727   2.753   6.306   3.789
  159POPC  H17R18728   2.691   6.226   3.744
  159POPC  H17S18729   2.684   6.385   3.824
  159POPC  C21818730   2.829   6.250   3.909
  159POPC  H18R18731   2.911   6.318   3.940
  159POPC  H18S18732   2.872   6.150   3.886
  159POPC  H18T18733   2.759   6.240   3.995
  159POPC   C3318734   2.752   6.173   2.899
  159POPC   H3X18735   2.838   6.116   2.858
  159POPC   H3Y18736   2.694   6.210   2.812
  159POPC   C3418737   2.658   6.080   2.979
  159POPC   H4X18738   2.618   6.002   2.911
  159POPC   H4Y18739   2.572   6.141   3.014
  159POPC   C3518740   2.722   6.011   3.102
  159POPC   H5X18741   2.639   5.969   3.163
  159POPC   H5Y18742   2.775   6.086   3.164
  159POPC   C3618743   2.815   5.894   3.066
  159POPC   H6X18744   2.905   5.935   3.016
  159POPC   H6Y18745   2.763   5.829   2.992
  159POPC   C3718746   2.855   5.808   3.187
  159POPC   H7X18747   2.928   5.732   3.153
  159POPC   H7Y18748   2.766   5.754   3.225
  159POPC   C3818749   2.916   5.888   3.304
  159POPC   H8X18750   2.835   5.941   3.358
  159POPC   H8Y18751   2.983   5.964   3.260
  159POPC   C3918752   2.996   5.801   3.402
  159POPC   H9X18753   3.087   5.764   3.349
  159POPC   H9Y18754   2.935   5.713   3.432
  159POPC  C31018755   3.042   5.875   3.530
  159POPC  H10X18756   3.109   5.808   3.588
  159POPC  H10Y18757   2.953   5.895   3.593
  159POPC  C31118758   3.116   6.007   3.501
  159POPC  H11X18759   3.043   6.079   3.460
  159POPC  H11Y18760   3.193   5.987   3.424
  159POPC  C31218761   3.186   6.072   3.621
  159POPC  H12X18762   3.226   6.170   3.589
  159POPC  H12Y18763   3.273   6.010   3.652
  159POPC  C31318764   3.094   6.095   3.742
  159POPC  H13X18765   2.989   6.071   3.713
  159POPC  H13Y18766   3.095   6.202   3.771
  159POPC  C31418767   3.132   6.010   3.864
  159POPC  H14X18768   3.177   5.914   3.828
  159POPC  H14Y18769   3.041   5.983   3.920
  159POPC  C31518770   3.230   6.082   3.958
  159POPC  H15X18771   3.304   6.139   3.898
  159POPC  H15Y18772   3.287   6.007   4.016
  159POPC  C31618773   3.159   6.175   4.057
  159POPC  H16X18774   3.113   6.261   4.004
  159POPC  H16Y18775   3.230   6.215   4.132
  159POPC  H16Z18776   3.079   6.120   4.111
  160POPC     N18777   3.973   6.253   2.431
  160POPC   C1218778   3.929   6.369   2.342
  160POPC  H12A18779   4.010   6.441   2.337
  160POPC  H12B18780   3.844   6.417   2.389
  160POPC   C1318781   3.866   6.149   2.430
  160POPC  H13A18782   3.772   6.192   2.461
  160POPC  H13B18783   3.849   6.115   2.329
  160POPC  H13C18784   3.890   6.065   2.494
  160POPC   C1418785   4.101   6.195   2.379
  160POPC  H14A18786   4.137   6.114   2.441
  160POPC  H14B18787   4.087   6.156   2.279
  160POPC  H14C18788   4.180   6.268   2.371
  160POPC   C1518789   3.994   6.301   2.572
  160POPC  H15A18790   3.904   6.345   2.611
  160POPC  H15B18791   4.074   6.373   2.577
  160POPC  H15C18792   4.019   6.218   2.637
  160POPC   C1118793   3.883   6.336   2.197
  160POPC  H11A18794   3.961   6.273   2.148
  160POPC  H11B18795   3.879   6.430   2.139
  160POPC     P18796   3.623   6.345   2.223
  160POPC   O1318797   3.508   6.251   2.217
  160POPC   O1418798   3.616   6.468   2.140
  160POPC   O1218799   3.758   6.267   2.193
  160POPC   O1118800   3.647   6.388   2.373
  160POPC    C118801   3.545   6.457   2.445
  160POPC    HA18802   3.444   6.415   2.423
  160POPC    HB18803   3.544   6.564   2.418
  160POPC    C218804   3.567   6.439   2.598
  160POPC    HS18805   3.477   6.477   2.652
  160POPC   O2118806   3.687   6.508   2.641
  160POPC   C2118807   3.673   6.640   2.646
  160POPC   O2218808   3.569   6.701   2.631
  160POPC   C2218809   3.810   6.705   2.668
  160POPC   H2R18810   3.819   6.787   2.594
  160POPC   H2S18811   3.890   6.631   2.646
  160POPC    C318812   3.580   6.288   2.631
  160POPC    HX18813   3.681   6.257   2.596
  160POPC    HY18814   3.506   6.233   2.568
  160POPC   O3118815   3.553   6.261   2.770
  160POPC   C3118816   3.651   6.203   2.839
  160POPC   O3218817   3.759   6.168   2.793
  160POPC   C3218818   3.612   6.196   2.986
  160POPC   H2X18819   3.595   6.089   3.013
  160POPC   H2Y18820   3.519   6.253   3.002
  160POPC   C2318821   3.827   6.762   2.810
  160POPC   H3R18822   3.746   6.834   2.834
  160POPC   H3S18823   3.923   6.819   2.814
  160POPC   C2418824   3.834   6.653   2.918
  160POPC   H4R18825   3.896   6.568   2.882
  160POPC   H4S18826   3.731   6.614   2.936
  160POPC   C2518827   3.894   6.702   3.050
  160POPC   H5R18828   3.843   6.797   3.079
  160POPC   H5S18829   4.001   6.725   3.037
  160POPC   C2618830   3.875   6.601   3.164
  160POPC   H6R18831   3.820   6.513   3.123
  160POPC   H6S18832   3.810   6.646   3.242
  160POPC   C2718833   4.002   6.548   3.231
  160POPC   H7R18834   3.973   6.488   3.321
  160POPC   H7S18835   4.057   6.636   3.269
  160POPC   C2818836   4.096   6.464   3.142
  160POPC   H8R18837   4.196   6.469   3.188
  160POPC   H8S18838   4.104   6.514   3.043
  160POPC   C2918839   4.060   6.319   3.120
  160POPC   H9118840   4.025   6.294   3.019
  160POPC  C21018841   4.067   6.221   3.212
  160POPC  H10118842   4.039   6.119   3.183
  160POPC  C21118843   4.111   6.235   3.356
  160POPC  H11R18844   4.138   6.340   3.381
  160POPC  H11S18845   4.201   6.173   3.376
  160POPC  C21218846   4.000   6.189   3.453
  160POPC  H12R18847   3.982   6.081   3.439
  160POPC  H12S18848   3.905   6.243   3.430
  160POPC  C21318849   4.033   6.216   3.601
  160POPC  H13R18850   4.034   6.325   3.619
  160POPC  H13S18851   4.133   6.176   3.625
  160POPC  C21418852   3.928   6.149   3.690
  160POPC  H14R18853   3.943   6.039   3.683
  160POPC  H14S18854   3.827   6.171   3.650
  160POPC  C21518855   3.931   6.189   3.838
  160POPC  H15R18856   3.900   6.295   3.849
  160POPC  H15S18857   4.035   6.179   3.877
  160POPC  C21618858   3.837   6.097   3.918
  160POPC  H16R18859   3.874   5.993   3.904
  160POPC  H16S18860   3.735   6.104   3.874
  160POPC  C21718861   3.829   6.124   4.068
  160POPC  H17R18862   3.736   6.076   4.107
  160POPC  H17S18863   3.820   6.233   4.086
  160POPC  C21818864   3.948   6.071   4.147
  160POPC  H18R18865   3.962   5.962   4.130
  160POPC  H18S18866   3.935   6.088   4.255
  160POPC  H18T18867   4.040   6.123   4.113
  160POPC   C3318868   3.727   6.256   3.069
  160POPC   H3X18869   3.757   6.352   3.023
  160POPC   H3Y18870   3.814   6.187   3.062
  160POPC   C3418871   3.699   6.281   3.219
  160POPC   H4X18872   3.798   6.307   3.262
  160POPC   H4Y18873   3.665   6.188   3.270
  160POPC   C3518874   3.606   6.398   3.252
  160POPC   H5X18875   3.499   6.368   3.242
  160POPC   H5Y18876   3.622   6.481   3.179
  160POPC   C3618877   3.632   6.453   3.393
  160POPC   H6X18878   3.741   6.460   3.410
  160POPC   H6Y18879   3.591   6.381   3.468
  160POPC   C3718880   3.570   6.591   3.416
  160POPC   H7X18881   3.462   6.586   3.392
  160POPC   H7Y18882   3.617   6.665   3.347
  160POPC   C3818883   3.583   6.643   3.560
  160POPC   H8X18884   3.521   6.579   3.626
  160POPC   H8Y18885   3.540   6.745   3.564
  160POPC   C3918886   3.727   6.651   3.614
  160POPC   H9X18887   3.783   6.720   3.546
  160POPC   H9Y18888   3.777   6.552   3.610
  160POPC  C31018889   3.736   6.707   3.757
  160POPC  H10X18890   3.655   6.781   3.774
  160POPC  H10Y18891   3.832   6.762   3.767
  160POPC  C31118892   3.735   6.602   3.869
  160POPC  H11X18893   3.750   6.655   3.965
  160POPC  H11Y18894   3.822   6.534   3.855
  160POPC  C31218895   3.606   6.519   3.876
  160POPC  H12X18896   3.596   6.462   3.781
  160POPC  H12Y18897   3.519   6.586   3.885
  160POPC  C31318898   3.604   6.416   3.990
  160POPC  H13X18899   3.693   6.350   3.977
  160POPC  H13Y18900   3.513   6.354   3.979
  160POPC  C31418901   3.607   6.479   4.131
  160POPC  H14X18902   3.521   6.549   4.141
  160POPC  H14Y18903   3.700   6.537   4.143
  160POPC  C31518904   3.600   6.375   4.244
  160POPC  H15X18905   3.615   6.428   4.340
  160POPC  H15Y18906   3.684   6.303   4.234
  160POPC  C31618907   3.468   6.298   4.250
  160POPC  H16X18908   3.456   6.233   4.160
  160POPC  H16Y18909   3.382   6.368   4.253
  160POPC  H16Z18910   3.464   6.233   4.340
  161POPC     N18911   4.106   1.304   2.165
  161POPC   C1218912   4.061   1.421   2.252
  161POPC  H12A18913   3.970   1.392   2.303
  161POPC  H12B18914   4.037   1.505   2.188
  161POPC   C1318915   4.149   1.189   2.252
  161POPC  H13A18916   4.072   1.156   2.319
  161POPC  H13B18917   4.181   1.105   2.193
  161POPC  H13C18918   4.235   1.219   2.311
  161POPC   C1418919   3.998   1.260   2.073
  161POPC  H14A18920   3.969   1.339   2.005
  161POPC  H14B18921   4.032   1.177   2.012
  161POPC  H14C18922   3.911   1.226   2.127
  161POPC   C1518923   4.227   1.342   2.085
  161POPC  H15A18924   4.308   1.362   2.153
  161POPC  H15B18925   4.212   1.431   2.025
  161POPC  H15C18926   4.259   1.261   2.021
  161POPC   C1118927   4.159   1.474   2.359
  161POPC  H11A18928   4.181   1.393   2.432
  161POPC  H11B18929   4.107   1.554   2.415
  161POPC     P18930   4.418   1.489   2.349
  161POPC   O1318931   4.516   1.571   2.274
  161POPC   O1418932   4.427   1.342   2.332
  161POPC   O1218933   4.274   1.531   2.297
  161POPC   O1118934   4.406   1.532   2.501
  161POPC    C118935   4.405   1.672   2.531
  161POPC    HA18936   4.356   1.731   2.451
  161POPC    HB18937   4.509   1.711   2.539
  161POPC    C218938   4.330   1.714   2.661
  161POPC    HS18939   4.318   1.824   2.654
  161POPC   O2118940   4.399   1.674   2.781
  161POPC   C2118941   4.461   1.772   2.839
  161POPC   O2218942   4.502   1.873   2.784
  161POPC   C2218943   4.461   1.751   2.990
  161POPC   H2R18944   4.501   1.847   3.027
  161POPC   H2S18945   4.533   1.669   3.011
  161POPC    C318946   4.188   1.657   2.676
  161POPC    HX18947   4.137   1.671   2.578
  161POPC    HY18948   4.144   1.727   2.752
  161POPC   O3118949   4.180   1.519   2.720
  161POPC   C3118950   4.097   1.499   2.822
  161POPC   O3218951   4.010   1.575   2.859
  161POPC   C3218952   4.130   1.368   2.892
  161POPC   H2X18953   4.182   1.300   2.822
  161POPC   H2Y18954   4.033   1.323   2.923
  161POPC   C2318955   4.326   1.724   3.062
  161POPC   H3R18956   4.348   1.652   3.143
  161POPC   H3S18957   4.253   1.674   2.994
  161POPC   C2418958   4.261   1.847   3.129
  161POPC   H4R18959   4.176   1.883   3.067
  161POPC   H4S18960   4.336   1.929   3.134
  161POPC   C2518961   4.212   1.821   3.273
  161POPC   H5R18962   4.298   1.793   3.337
  161POPC   H5S18963   4.144   1.733   3.272
  161POPC   C2618964   4.141   1.937   3.345
  161POPC   H6R18965   4.111   1.907   3.448
  161POPC   H6S18966   4.047   1.948   3.287
  161POPC   C2718967   4.209   2.075   3.351
  161POPC   H7R18968   4.131   2.153   3.368
  161POPC   H7S18969   4.254   2.095   3.252
  161POPC   C2818970   4.318   2.092   3.460
  161POPC   H8R18971   4.401   2.148   3.412
  161POPC   H8S18972   4.359   1.991   3.482
  161POPC   C2918973   4.287   2.165   3.588
  161POPC   H9118974   4.207   2.241   3.581
  161POPC  C21018975   4.349   2.146   3.706
  161POPC  H10118976   4.319   2.205   3.794
  161POPC  C21118977   4.461   2.046   3.732
  161POPC  H11R18978   4.558   2.085   3.692
  161POPC  H11S18979   4.438   1.953   3.677
  161POPC  C21218980   4.479   2.010   3.881
  161POPC  H12R18981   4.382   1.989   3.930
  161POPC  H12S18982   4.516   2.104   3.928
  161POPC  C21318983   4.580   1.898   3.919
  161POPC  H13R18984   4.602   1.917   4.026
  161POPC  H13S18985   4.675   1.911   3.862
  161POPC  C21418986   4.541   1.749   3.922
  161POPC  H14R18987   4.575   1.702   3.827
  161POPC  H14S18988   4.431   1.737   3.930
  161POPC  C21518989   4.609   1.667   4.033
  161POPC  H15R18990   4.713   1.703   4.051
  161POPC  H15S18991   4.619   1.563   3.994
  161POPC  C21618992   4.530   1.658   4.164
  161POPC  H16R18993   4.556   1.562   4.214
  161POPC  H16S18994   4.421   1.656   4.142
  161POPC  C21718995   4.561   1.771   4.262
  161POPC  H17R18996   4.536   1.869   4.216
  161POPC  H17S18997   4.670   1.771   4.285
  161POPC  C21818998   4.483   1.758   4.392
  161POPC  H18R18999   4.374   1.758   4.371
  161POPC  H18S19000   4.506   1.843   4.459
  161POPC  H18T19001   4.508   1.663   4.445
  161POPC   C3319002   4.216   1.397   3.016
  161POPC   H3X19003   4.172   1.482   3.073
  161POPC   H3Y19004   4.319   1.425   2.986
  161POPC   C3419005   4.220   1.279   3.113
  161POPC   H4X19006   4.272   1.192   3.066
  161POPC   H4Y19007   4.116   1.247   3.136
  161POPC   C3519008   4.290   1.315   3.244
  161POPC   H5X19009   4.256   1.415   3.280
  161POPC   H5Y19010   4.400   1.321   3.227
  161POPC   C3619011   4.260   1.211   3.352
  161POPC   H6X19012   4.276   1.110   3.308
  161POPC   H6Y19013   4.152   1.217   3.381
  161POPC   C3719014   4.347   1.224   3.477
  161POPC   H7X19015   4.455   1.220   3.448
  161POPC   H7Y19016   4.325   1.137   3.542
  161POPC   C3819017   4.327   1.352   3.558
  161POPC   H8X19018   4.220   1.380   3.556
  161POPC   H8Y19019   4.384   1.434   3.509
  161POPC   C3919020   4.372   1.332   3.703
  161POPC   H9X19021   4.450   1.406   3.731
  161POPC   H9Y19022   4.419   1.232   3.715
  161POPC  C31019023   4.253   1.344   3.798
  161POPC  H10X19024   4.174   1.272   3.766
  161POPC  H10Y19025   4.210   1.446   3.787
  161POPC  C31119026   4.287   1.319   3.945
  161POPC  H11X19027   4.373   1.381   3.976
  161POPC  H11Y19028   4.317   1.212   3.955
  161POPC  C31219029   4.166   1.347   4.035
  161POPC  H12X19030   4.159   1.266   4.111
  161POPC  H12Y19031   4.074   1.339   3.973
  161POPC  C31319032   4.170   1.484   4.104
  161POPC  H13X19033   4.158   1.563   4.026
  161POPC  H13Y19034   4.272   1.498   4.146
  161POPC  C31419035   4.069   1.503   4.219
  161POPC  H14X19036   4.126   1.530   4.310
  161POPC  H14Y19037   4.019   1.406   4.239
  161POPC  C31519038   3.964   1.613   4.198
  161POPC  H15X19039   3.898   1.585   4.114
  161POPC  H15Y19040   4.016   1.708   4.173
  161POPC  C31619041   3.875   1.643   4.320
  161POPC  H16X19042   3.937   1.679   4.405
  161POPC  H16Y19043   3.820   1.552   4.352
  161POPC  H16Z19044   3.801   1.722   4.295
  162POPC     N19045   3.426   1.320   2.370
  162POPC   C1219046   3.423   1.298   2.219
  162POPC  H12A19047   3.483   1.374   2.172
  162POPC  H12B19048   3.321   1.312   2.185
  162POPC   C1319049   3.553   1.264   2.429
  162POPC  H13A19050   3.560   1.283   2.535
  162POPC  H13B19051   3.556   1.157   2.417
  162POPC  H13C19052   3.641   1.305   2.382
  162POPC   C1419053   3.420   1.466   2.397
  162POPC  H14A19054   3.327   1.510   2.363
  162POPC  H14B19055   3.430   1.488   2.503
  162POPC  H14C19056   3.500   1.519   2.347
  162POPC   C1519057   3.311   1.246   2.433
  162POPC  H15A19058   3.216   1.283   2.399
  162POPC  H15B19059   3.315   1.251   2.541
  162POPC  H15C19060   3.318   1.142   2.405
  162POPC   C1119061   3.470   1.161   2.166
  162POPC  H11A19062   3.580   1.153   2.182
  162POPC  H11B19063   3.453   1.158   2.056
  162POPC     P19064   3.471   0.919   2.261
  162POPC   O1319065   3.542   0.877   2.138
  162POPC   O1419066   3.364   0.828   2.310
  162POPC   O1219067   3.397   1.054   2.225
  162POPC   O1119068   3.569   0.968   2.374
  162POPC    C119069   3.626   0.882   2.473
  162POPC    HA19070   3.733   0.910   2.486
  162POPC    HB19071   3.624   0.775   2.443
  162POPC    C219072   3.559   0.894   2.614
  162POPC    HS19073   3.464   0.837   2.607
  162POPC   O2119074   3.538   1.034   2.644
  162POPC   C2119075   3.432   1.057   2.719
  162POPC   O2219076   3.339   0.981   2.738
  162POPC   C2219077   3.440   1.197   2.778
  162POPC   H2R19078   3.356   1.258   2.737
  162POPC   H2S19079   3.537   1.243   2.750
  162POPC    C319080   3.647   0.829   2.726
  162POPC    HX19081   3.749   0.869   2.714
  162POPC    HY19082   3.655   0.719   2.708
  162POPC   O3119083   3.602   0.861   2.860
  162POPC   C3119084   3.527   0.769   2.921
  162POPC   O3219085   3.494   0.662   2.874
  162POPC   C3219086   3.492   0.819   3.062
  162POPC   H2X19087   3.476   0.929   3.056
  162POPC   H2Y19088   3.578   0.799   3.128
  162POPC   C2319089   3.428   1.190   2.931
  162POPC   H3R19090   3.501   1.114   2.968
  162POPC   H3S19091   3.326   1.157   2.960
  162POPC   C2419092   3.462   1.321   3.001
  162POPC   H4R19093   3.403   1.404   2.957
  162POPC   H4S19094   3.570   1.343   2.984
  162POPC   C2519095   3.436   1.316   3.152
  162POPC   H5R19096   3.328   1.296   3.168
  162POPC   H5S19097   3.458   1.415   3.197
  162POPC   C2619098   3.516   1.208   3.227
  162POPC   H6R19099   3.495   1.107   3.186
  162POPC   H6S19100   3.482   1.206   3.332
  162POPC   C2719101   3.668   1.233   3.224
  162POPC   H7R19102   3.685   1.340   3.250
  162POPC   H7S19103   3.708   1.218   3.121
  162POPC   C2819104   3.745   1.148   3.326
  162POPC   H8R19105   3.691   1.159   3.423
  162POPC   H8S19106   3.846   1.191   3.340
  162POPC   C2919107   3.758   1.003   3.288
  162POPC   H9119108   3.788   0.988   3.183
  162POPC  C21019109   3.738   0.892   3.363
  162POPC  H10119110   3.755   0.796   3.313
  162POPC  C21119111   3.699   0.875   3.508
  162POPC  H11R19112   3.762   0.792   3.549
  162POPC  H11S19113   3.595   0.838   3.513
  162POPC  C21219114   3.712   0.989   3.612
  162POPC  H12R19115   3.629   1.062   3.593
  162POPC  H12S19116   3.809   1.041   3.601
  162POPC  C21319117   3.698   0.937   3.755
  162POPC  H13R19118   3.775   0.858   3.772
  162POPC  H13S19119   3.600   0.885   3.762
  162POPC  C21419120   3.704   1.039   3.870
  162POPC  H14R19121   3.679   0.982   3.962
  162POPC  H14S19122   3.626   1.117   3.857
  162POPC  C21519123   3.834   1.115   3.897
  162POPC  H15R19124   3.832   1.209   3.838
  162POPC  H15S19125   3.923   1.058   3.861
  162POPC  C21619126   3.850   1.149   4.046
  162POPC  H16R19127   3.935   1.220   4.059
  162POPC  H16S19128   3.877   1.057   4.103
  162POPC  C21719129   3.725   1.211   4.110
  162POPC  H17R19130   3.648   1.132   4.120
  162POPC  H17S19131   3.685   1.290   4.043
  162POPC  C21819132   3.749   1.272   4.249
  162POPC  H18R19133   3.797   1.198   4.316
  162POPC  H18S19134   3.653   1.304   4.294
  162POPC  H18T19135   3.816   1.361   4.241
  162POPC   C3319136   3.364   0.752   3.119
  162POPC   H3X19137   3.387   0.645   3.140
  162POPC   H3Y19138   3.282   0.755   3.044
  162POPC   C3419139   3.314   0.819   3.249
  162POPC   H4X19140   3.401   0.845   3.313
  162POPC   H4Y19141   3.253   0.744   3.303
  162POPC   C3519142   3.227   0.943   3.224
  162POPC   H5X19143   3.136   0.913   3.167
  162POPC   H5Y19144   3.283   1.015   3.161
  162POPC   C3619145   3.182   1.015   3.353
  162POPC   H6X19146   3.117   1.101   3.326
  162POPC   H6Y19147   3.273   1.056   3.403
  162POPC   C3719148   3.108   0.924   3.453
  162POPC   H7X19149   3.178   0.846   3.489
  162POPC   H7Y19150   3.025   0.872   3.400
  162POPC   C3819151   3.049   0.996   3.577
  162POPC   H8X19152   3.021   0.920   3.653
  162POPC   H8Y19153   2.954   1.046   3.548
  162POPC   C3919154   3.142   1.100   3.642
  162POPC   H9X19155   3.086   1.157   3.720
  162POPC   H9Y19156   3.174   1.174   3.566
  162POPC  C31019157   3.265   1.035   3.707
  162POPC  H10X19158   3.307   0.963   3.634
  162POPC  H10Y19159   3.235   0.976   3.796
  162POPC  C31119160   3.376   1.135   3.740
  162POPC  H11X19161   3.387   1.206   3.655
  162POPC  H11Y19162   3.469   1.075   3.744
  162POPC  C31219163   3.360   1.213   3.872
  162POPC  H12X19164   3.260   1.261   3.873
  162POPC  H12Y19165   3.436   1.293   3.874
  162POPC  C31319166   3.378   1.128   3.999
  162POPC  H13X19167   3.479   1.083   4.003
  162POPC  H13Y19168   3.308   1.042   3.997
  162POPC  C31419169   3.355   1.211   4.127
  162POPC  H14X19170   3.269   1.278   4.109
  162POPC  H14Y19171   3.443   1.275   4.146
  162POPC  C31519172   3.324   1.126   4.252
  162POPC  H15X19173   3.231   1.067   4.232
  162POPC  H15Y19174   3.301   1.195   4.336
  162POPC  C31619175   3.435   1.030   4.295
  162POPC  H16X19176   3.527   1.087   4.320
  162POPC  H16Y19177   3.458   0.957   4.215
  162POPC  H16Z19178   3.404   0.974   4.386
  163POPC     N19179   5.941   5.947   2.138
  163POPC   C1219180   5.861   5.867   2.238
  163POPC  H12A19181   5.799   5.794   2.187
  163POPC  H12B19182   5.795   5.935   2.291
  163POPC   C1319183   6.060   5.867   2.093
  163POPC  H13A19184   6.030   5.775   2.045
  163POPC  H13B19185   6.124   5.924   2.028
  163POPC  H13C19186   6.119   5.841   2.180
  163POPC   C1419187   5.856   5.990   2.024
  163POPC  H14A19188   5.784   6.063   2.058
  163POPC  H14B19189   5.915   6.041   1.949
  163POPC  H14C19190   5.805   5.907   1.977
  163POPC   C1519191   5.990   6.071   2.206
  163POPC  H15A19192   6.044   6.045   2.296
  163POPC  H15B19193   5.908   6.135   2.235
  163POPC  H15C19194   6.056   6.129   2.142
  163POPC   C1119195   5.940   5.790   2.347
  163POPC  H11A19196   6.002   5.710   2.302
  163POPC  H11B19197   5.865   5.740   2.410
  163POPC     P19198   6.170   5.876   2.449
  163POPC   O1319199   6.218   6.006   2.398
  163POPC   O1419200   6.224   5.754   2.383
  163POPC   O1219201   6.014   5.880   2.429
  163POPC   O1119202   6.186   5.868   2.607
  163POPC    C119203   6.080   5.893   2.701
  163POPC    HA19204   6.070   5.807   2.770
  163POPC    HB19205   5.981   5.906   2.652
  163POPC    C219206   6.105   6.022   2.784
  163POPC    HS19207   6.158   6.093   2.718
  163POPC   O2119208   6.183   5.992   2.902
  163POPC   C2119209   6.236   6.101   2.958
  163POPC   O2219210   6.233   6.214   2.912
  163POPC   C2219211   6.304   6.064   3.090
  163POPC   H2R19212   6.365   6.151   3.123
  163POPC   H2S19213   6.372   5.979   3.068
  163POPC    C319214   5.969   6.089   2.824
  163POPC    HX19215   5.925   6.125   2.729
  163POPC    HY19216   5.996   6.178   2.885
  163POPC   O3119217   5.871   6.004   2.887
  163POPC   C3119218   5.817   6.056   2.998
  163POPC   O3219219   5.869   6.141   3.068
  163POPC   C3219220   5.680   5.997   3.022
  163POPC   H2X19221   5.700   5.896   3.065
  163POPC   H2Y19222   5.628   5.981   2.925
  163POPC   C2319223   6.204   6.023   3.200
  163POPC   H3R19224   6.259   5.969   3.280
  163POPC   H3S19225   6.130   5.952   3.158
  163POPC   C2419226   6.130   6.141   3.265
  163POPC   H4R19227   6.082   6.203   3.186
  163POPC   H4S19228   6.200   6.206   3.321
  163POPC   C2519229   6.020   6.088   3.358
  163POPC   H5R19230   6.067   6.035   3.444
  163POPC   H5S19231   5.964   6.013   3.299
  163POPC   C2619232   5.919   6.192   3.406
  163POPC   H6R19233   5.830   6.141   3.449
  163POPC   H6S19234   5.883   6.249   3.318
  163POPC   C2719235   5.974   6.291   3.510
  163POPC   H7R19236   5.896   6.368   3.527
  163POPC   H7S19237   6.062   6.340   3.465
  163POPC   C2819238   6.012   6.231   3.647
  163POPC   H8R19239   6.062   6.311   3.706
  163POPC   H8S19240   6.089   6.152   3.631
  163POPC   C2919241   5.894   6.174   3.721
  163POPC   H9119242   5.836   6.101   3.663
  163POPC  C21019243   5.852   6.205   3.845
  163POPC  H10119244   5.764   6.153   3.886
  163POPC  C21119245   5.913   6.305   3.940
  163POPC  H11R19246   5.943   6.396   3.884
  163POPC  H11S19247   6.006   6.263   3.986
  163POPC  C21219248   5.816   6.347   4.053
  163POPC  H12R19249   5.717   6.366   4.008
  163POPC  H12S19250   5.852   6.444   4.095
  163POPC  C21319251   5.800   6.251   4.172
  163POPC  H13R19252   5.791   6.146   4.138
  163POPC  H13S19253   5.704   6.278   4.221
  163POPC  C21419254   5.911   6.264   4.278
  163POPC  H14R19255   5.963   6.361   4.264
  163POPC  H14S19256   5.986   6.184   4.262
  163POPC  C21519257   5.860   6.261   4.423
  163POPC  H15R19258   5.794   6.349   4.440
  163POPC  H15S19259   5.946   6.271   4.492
  163POPC  C21619260   5.781   6.135   4.460
  163POPC  H16R19261   5.689   6.128   4.397
  163POPC  H16S19262   5.748   6.143   4.566
  163POPC  C21719263   5.860   6.006   4.444
  163POPC  H17R19264   5.954   6.012   4.504
  163POPC  H17S19265   5.890   5.993   4.338
  163POPC  C21819266   5.779   5.884   4.488
  163POPC  H18R19267   5.678   5.885   4.442
  163POPC  H18S19268   5.769   5.886   4.599
  163POPC  H18T19269   5.830   5.790   4.459
  163POPC   C3319270   5.590   6.087   3.112
  163POPC   H3X19271   5.533   6.158   3.049
  163POPC   H3Y19272   5.653   6.150   3.179
  163POPC   C3419273   5.494   6.010   3.204
  163POPC   H4X19274   5.409   5.972   3.143
  163POPC   H4Y19275   5.453   6.080   3.280
  163POPC   C3519276   5.559   5.891   3.275
  163POPC   H5X19277   5.581   5.813   3.198
  163POPC   H5Y19278   5.485   5.844   3.343
  163POPC   C3619279   5.689   5.922   3.349
  163POPC   H6X19280   5.665   5.959   3.451
  163POPC   H6Y19281   5.744   6.005   3.299
  163POPC   C3719282   5.789   5.804   3.356
  163POPC   H7X19283   5.851   5.806   3.264
  163POPC   H7Y19284   5.736   5.706   3.358
  163POPC   C3819285   5.877   5.816   3.480
  163POPC   H8X19286   5.880   5.922   3.510
  163POPC   H8Y19287   5.982   5.786   3.459
  163POPC   C3919288   5.821   5.734   3.597
  163POPC   H9X19289   5.855   5.629   3.591
  163POPC   H9Y19290   5.710   5.734   3.589
  163POPC  C31019291   5.857   5.795   3.733
  163POPC  H10X19292   5.788   5.756   3.810
  163POPC  H10Y19293   5.842   5.905   3.728
  163POPC  C31119294   6.001   5.768   3.777
  163POPC  H11X19295   6.072   5.805   3.700
  163POPC  H11Y19296   6.016   5.658   3.786
  163POPC  C31219297   6.032   5.835   3.910
  163POPC  H12X19298   6.058   5.759   3.986
  163POPC  H12Y19299   5.939   5.887   3.943
  163POPC  C31319300   6.142   5.941   3.905
  163POPC  H13X19301   6.121   6.009   3.819
  163POPC  H13Y19302   6.240   5.894   3.887
  163POPC  C31419303   6.145   6.025   4.033
  163POPC  H14X19304   6.168   5.959   4.120
  163POPC  H14Y19305   6.044   6.068   4.050
  163POPC  C31519306   6.249   6.137   4.024
  163POPC  H15X19307   6.242   6.185   3.924
  163POPC  H15Y19308   6.349   6.088   4.031
  163POPC  C31619309   6.239   6.244   4.132
  163POPC  H16X19310   6.226   6.197   4.232
  163POPC  H16Y19311   6.153   6.312   4.116
  163POPC  H16Z19312   6.331   6.307   4.134
  164POPC     N19313   0.539   4.300   2.292
  164POPC   C1219314   0.667   4.355   2.232
  164POPC  H12A19315   0.724   4.404   2.310
  164POPC  H12B19316   0.644   4.429   2.158
  164POPC   C1319317   0.479   4.195   2.203
  164POPC  H13A19318   0.461   4.234   2.103
  164POPC  H13B19319   0.546   4.111   2.196
  164POPC  H13C19320   0.385   4.160   2.243
  164POPC   C1419321   0.568   4.234   2.424
  164POPC  H14A19322   0.478   4.192   2.468
  164POPC  H14B19323   0.641   4.155   2.411
  164POPC  H14C19324   0.609   4.304   2.495
  164POPC   C1519325   0.437   4.407   2.315
  164POPC  H15A19326   0.344   4.363   2.346
  164POPC  H15B19327   0.417   4.464   2.225
  164POPC  H15C19328   0.467   4.477   2.391
  164POPC   C1119329   0.765   4.254   2.168
  164POPC  H11A19330   0.845   4.310   2.115
  164POPC  H11B19331   0.714   4.194   2.090
  164POPC     P19332   0.942   4.220   2.351
  164POPC   O1319333   0.918   4.363   2.379
  164POPC   O1419334   1.062   4.183   2.273
  164POPC   O1219335   0.819   4.165   2.267
  164POPC   O1119336   0.932   4.134   2.484
  164POPC    C119337   0.913   3.993   2.475
  164POPC    HA19338   0.983   3.948   2.402
  164POPC    HB19339   0.809   3.970   2.443
  164POPC    C219340   0.939   3.920   2.610
  164POPC    HS19341   0.944   3.811   2.586
  164POPC   O2119342   0.835   3.950   2.704
  164POPC   C2119343   0.736   3.862   2.707
  164POPC   O2219344   0.734   3.757   2.645
  164POPC   C2219345   0.625   3.910   2.801
  164POPC   H2R19346   0.544   3.834   2.801
  164POPC   H2S19347   0.583   4.004   2.757
  164POPC    C319348   1.080   3.953   2.669
  164POPC    HX19349   1.154   3.942   2.587
  164POPC    HY19350   1.099   3.873   2.745
  164POPC   O3119351   1.093   4.080   2.736
  164POPC   C3119352   1.215   4.090   2.789
  164POPC   O3219353   1.311   4.021   2.758
  164POPC   C3219354   1.212   4.187   2.905
  164POPC   H2X19355   1.173   4.284   2.867
  164POPC   H2Y19356   1.317   4.199   2.940
  164POPC   C2319357   0.674   3.937   2.945
  164POPC   H3R19358   0.592   3.989   3.000
  164POPC   H3S19359   0.761   4.005   2.943
  164POPC   C2419360   0.708   3.809   3.023
  164POPC   H4R19361   0.774   3.744   2.962
  164POPC   H4S19362   0.615   3.753   3.044
  164POPC   C2519363   0.779   3.842   3.155
  164POPC   H5R19364   0.721   3.917   3.212
  164POPC   H5S19365   0.877   3.888   3.129
  164POPC   C2619366   0.804   3.719   3.244
  164POPC   H6R19367   0.816   3.629   3.180
  164POPC   H6S19368   0.715   3.702   3.308
  164POPC   C2719369   0.931   3.732   3.330
  164POPC   H7R19370   1.018   3.728   3.262
  164POPC   H7S19371   0.939   3.645   3.399
  164POPC   C2819372   0.941   3.863   3.411
  164POPC   H8R19373   0.923   3.949   3.343
  164POPC   H8S19374   1.047   3.874   3.444
  164POPC   C2919375   0.847   3.871   3.528
  164POPC   H9119376   0.745   3.904   3.503
  164POPC  C21019377   0.878   3.842   3.655
  164POPC  H10119378   0.800   3.854   3.732
  164POPC  C21119379   1.011   3.794   3.708
  164POPC  H11R19380   1.082   3.772   3.626
  164POPC  H11S19381   0.997   3.699   3.763
  164POPC  C21219382   1.078   3.895   3.803
  164POPC  H12R19383   1.094   3.991   3.749
  164POPC  H12S19384   1.177   3.856   3.832
  164POPC  C21319385   0.996   3.920   3.930
  164POPC  H13R19386   0.975   3.823   3.979
  164POPC  H13S19387   0.899   3.966   3.903
  164POPC  C21419388   1.067   4.009   4.034
  164POPC  H14R19389   1.165   3.963   4.059
  164POPC  H14S19390   1.006   4.010   4.127
  164POPC  C21519391   1.089   4.154   3.987
  164POPC  H15R19392   0.992   4.203   3.965
  164POPC  H15S19393   1.149   4.153   3.893
  164POPC  C21619394   1.166   4.234   4.093
  164POPC  H16R19395   1.251   4.169   4.122
  164POPC  H16S19396   1.105   4.250   4.184
  164POPC  C21719397   1.226   4.366   4.042
  164POPC  H17R19398   1.273   4.348   3.943
  164POPC  H17S19399   1.307   4.394   4.113
  164POPC  C21819400   1.131   4.485   4.032
  164POPC  H18R19401   1.092   4.513   4.132
  164POPC  H18S19402   1.045   4.461   3.965
  164POPC  H18T19403   1.184   4.573   3.990
  164POPC   C3319404   1.125   4.136   3.021
  164POPC   H3X19405   1.171   4.045   3.065
  164POPC   H3Y19406   1.025   4.107   2.982
  164POPC   C3419407   1.105   4.241   3.131
  164POPC   H4X19408   1.062   4.332   3.085
  164POPC   H4Y19409   1.203   4.268   3.177
  164POPC   C3519410   1.011   4.187   3.238
  164POPC   H5X19411   1.063   4.109   3.297
  164POPC   H5Y19412   0.925   4.139   3.186
  164POPC   C3619413   0.954   4.294   3.332
  164POPC   H6X19414   0.916   4.380   3.272
  164POPC   H6Y19415   1.033   4.332   3.400
  164POPC   C3719416   0.838   4.235   3.412
  164POPC   H7X19417   0.877   4.152   3.476
  164POPC   H7Y19418   0.765   4.190   3.341
  164POPC   C3819419   0.764   4.335   3.501
  164POPC   H8X19420   0.724   4.416   3.436
  164POPC   H8Y19421   0.834   4.381   3.574
  164POPC   C3919422   0.649   4.265   3.574
  164POPC   H9X19423   0.635   4.164   3.532
  164POPC   H9Y19424   0.554   4.321   3.556
  164POPC  C31019425   0.673   4.253   3.725
  164POPC  H10X19426   0.653   4.351   3.772
  164POPC  H10Y19427   0.779   4.228   3.743
  164POPC  C31119428   0.585   4.145   3.789
  164POPC  H11X19429   0.629   4.045   3.768
  164POPC  H11Y19430   0.484   4.148   3.743
  164POPC  C31219431   0.569   4.164   3.940
  164POPC  H12X19432   0.511   4.080   3.983
  164POPC  H12Y19433   0.511   4.257   3.958
  164POPC  C31319434   0.701   4.174   4.017
  164POPC  H13X19435   0.759   4.260   3.976
  164POPC  H13Y19436   0.761   4.082   4.001
  164POPC  C31419437   0.678   4.194   4.167
  164POPC  H14X19438   0.633   4.102   4.210
  164POPC  H14Y19439   0.606   4.277   4.180
  164POPC  C31519440   0.805   4.231   4.244
  164POPC  H15X19441   0.883   4.154   4.228
  164POPC  H15Y19442   0.781   4.231   4.352
  164POPC  C31619443   0.859   4.368   4.203
  164POPC  H16X19444   0.781   4.447   4.216
  164POPC  H16Y19445   0.890   4.368   4.097
  164POPC  H16Z19446   0.947   4.395   4.265
  165POPC     N19447   2.293   6.524   2.147
  165POPC   C1219448   2.327   6.672   2.160
  165POPC  H12A19449   2.246   6.721   2.212
  165POPC  H12B19450   2.336   6.716   2.062
  165POPC   C1319451   2.420   6.445   2.132
  165POPC  H13A19452   2.483   6.465   2.217
  165POPC  H13B19453   2.403   6.338   2.133
  165POPC  H13C19454   2.477   6.473   2.044
  165POPC   C1419455   2.233   6.475   2.276
  165POPC  H14A19456   2.223   6.368   2.278
  165POPC  H14B19457   2.301   6.502   2.356
  165POPC  H14C19458   2.137   6.520   2.298
  165POPC   C1519459   2.201   6.500   2.033
  165POPC  H15A19460   2.248   6.525   1.940
  165POPC  H15B19461   2.110   6.557   2.044
  165POPC  H15C19462   2.174   6.395   2.031
  165POPC   C1119463   2.455   6.707   2.238
  165POPC  H11A19464   2.458   6.818   2.240
  165POPC  H11B19465   2.546   6.673   2.185
  165POPC     P19466   2.505   6.725   2.493
  165POPC   O1319467   2.515   6.869   2.457
  165POPC   O1419468   2.628   6.658   2.538
  165POPC   O1219469   2.449   6.649   2.367
  165POPC   O1119470   2.386   6.702   2.593
  165POPC    C119471   2.345   6.572   2.640
  165POPC    HA19472   2.426   6.529   2.703
  165POPC    HB19473   2.326   6.502   2.555
  165POPC    C219474   2.216   6.581   2.727
  165POPC    HS19475   2.130   6.603   2.660
  165POPC   O2119476   2.234   6.686   2.824
  165POPC   C2119477   2.214   6.808   2.778
  165POPC   O2219478   2.144   6.839   2.683
  165POPC   C2219479   2.285   6.905   2.871
  165POPC   H2R19480   2.252   7.008   2.845
  165POPC   H2S19481   2.394   6.898   2.853
  165POPC    C319482   2.181   6.450   2.803
  165POPC    HX19483   2.163   6.370   2.728
  165POPC    HY19484   2.087   6.464   2.859
  165POPC   O3119485   2.290   6.408   2.888
  165POPC   C3119486   2.288   6.454   3.013
  165POPC   O3219487   2.192   6.502   3.070
  165POPC   C3219488   2.427   6.436   3.073
  165POPC   H2X19489   2.474   6.348   3.024
  165POPC   H2Y19490   2.417   6.414   3.182
  165POPC   C2319491   2.252   6.873   3.019
  165POPC   H3R19492   2.310   6.784   3.051
  165POPC   H3S19493   2.145   6.845   3.028
  165POPC   C2419494   2.277   6.989   3.116
  165POPC   H4R19495   2.224   7.079   3.077
  165POPC   H4S19496   2.385   7.014   3.121
  165POPC   C2519497   2.223   6.956   3.255
  165POPC   H5R19498   2.287   6.879   3.304
  165POPC   H5S19499   2.122   6.910   3.243
  165POPC   C2619500   2.206   7.078   3.346
  165POPC   H6R19501   2.109   7.071   3.399
  165POPC   H6S19502   2.202   7.169   3.282
  165POPC   C2719503   2.316   7.095   3.452
  165POPC   H7R19504   2.322   7.203   3.476
  165POPC   H7S19505   2.415   7.065   3.410
  165POPC   C2819506   2.287   7.023   3.585
  165POPC   H8R19507   2.185   7.053   3.619
  165POPC   H8S19508   2.357   7.063   3.661
  165POPC   C2919509   2.301   6.873   3.580
  165POPC   H9119510   2.405   6.838   3.589
  165POPC  C21019511   2.206   6.778   3.575
  165POPC  H10119512   2.237   6.672   3.574
  165POPC  C21119513   2.058   6.801   3.573
  165POPC  H11R19514   2.010   6.734   3.498
  165POPC  H11S19515   2.034   6.904   3.539
  165POPC  C21219516   1.998   6.773   3.712
  165POPC  H12R19517   2.005   6.664   3.730
  165POPC  H12S19518   1.890   6.800   3.710
  165POPC  C21319519   2.064   6.841   3.833
  165POPC  H13R19520   2.044   6.950   3.834
  165POPC  H13S19521   2.174   6.828   3.829
  165POPC  C21419522   2.017   6.776   3.964
  165POPC  H14R19523   2.028   6.666   3.953
  165POPC  H14S19524   1.909   6.795   3.980
  165POPC  C21519525   2.098   6.820   4.087
  165POPC  H15R19526   2.079   6.927   4.110
  165POPC  H15S19527   2.206   6.808   4.064
  165POPC  C21619528   2.064   6.731   4.208
  165POPC  H16R19529   2.065   6.626   4.174
  165POPC  H16S19530   1.961   6.754   4.243
  165POPC  C21719531   2.164   6.743   4.324
  165POPC  H17R19532   2.268   6.743   4.284
  165POPC  H17S19533   2.153   6.653   4.388
  165POPC  C21819534   2.140   6.867   4.409
  165POPC  H18R19535   2.202   6.866   4.501
  165POPC  H18S19536   2.033   6.875   4.438
  165POPC  H18T19537   2.165   6.958   4.351
  165POPC   C3319538   2.517   6.559   3.050
  165POPC   H3X19539   2.485   6.615   2.959
  165POPC   H3Y19540   2.620   6.525   3.029
  165POPC   C3419541   2.527   6.655   3.169
  165POPC   H4X19542   2.576   6.603   3.254
  165POPC   H4Y19543   2.425   6.685   3.202
  165POPC   C3519544   2.608   6.780   3.131
  165POPC   H5X19545   2.559   6.827   3.043
  165POPC   H5Y19546   2.710   6.750   3.099
  165POPC   C3619547   2.617   6.886   3.242
  165POPC   H6X19548   2.514   6.908   3.278
  165POPC   H6Y19549   2.656   6.980   3.198
  165POPC   C3719550   2.706   6.846   3.361
  165POPC   H7X19551   2.782   6.926   3.380
  165POPC   H7Y19552   2.761   6.752   3.337
  165POPC   C3819553   2.622   6.829   3.487
  165POPC   H8X19554   2.548   6.749   3.463
  165POPC   H8Y19555   2.567   6.924   3.504
  165POPC   C3919556   2.699   6.794   3.615
  165POPC   H9X19557   2.755   6.883   3.648
  165POPC   H9Y19558   2.773   6.715   3.591
  165POPC  C31019559   2.609   6.744   3.730
  165POPC  H10X19560   2.537   6.823   3.758
  165POPC  H10Y19561   2.675   6.726   3.817
  165POPC  C31119562   2.534   6.613   3.698
  165POPC  H11X19563   2.607   6.535   3.669
  165POPC  H11Y19564   2.466   6.627   3.611
  165POPC  C31219565   2.449   6.561   3.815
  165POPC  H12X19566   2.375   6.639   3.844
  165POPC  H12Y19567   2.515   6.542   3.902
  165POPC  C31319568   2.375   6.431   3.780
  165POPC  H13X19569   2.449   6.358   3.741
  165POPC  H13Y19570   2.301   6.450   3.698
  165POPC  C31419571   2.303   6.368   3.900
  165POPC  H14X19572   2.375   6.365   3.985
  165POPC  H14Y19573   2.275   6.264   3.875
  165POPC  C31519574   2.177   6.443   3.944
  165POPC  H15X19575   2.107   6.449   3.858
  165POPC  H15Y19576   2.206   6.547   3.971
  165POPC  C31619577   2.106   6.378   4.063
  165POPC  H16X19578   2.172   6.378   4.152
  165POPC  H16Y19579   2.078   6.273   4.040
  165POPC  H16Z19580   2.013   6.434   4.090
  166POPC     N19581   4.897   0.913   2.202
  166POPC   C1219582   4.911   0.768   2.248
  166POPC  H12A19583   4.950   0.766   2.348
  166POPC  H12B19584   4.983   0.718   2.185
  166POPC   C1319585   4.820   0.988   2.306
  166POPC  H13A19586   4.800   1.091   2.280
  166POPC  H13B19587   4.726   0.937   2.325
  166POPC  H13C19588   4.867   0.984   2.403
  166POPC   C1419589   5.032   0.978   2.186
  166POPC  H14A19590   5.089   0.931   2.107
  166POPC  H14B19591   5.024   1.082   2.159
  166POPC  H14C19592   5.089   0.972   2.277
  166POPC   C1519593   4.822   0.919   2.073
  166POPC  H15A19594   4.727   0.871   2.086
  166POPC  H15B19595   4.877   0.868   1.995
  166POPC  H15C19596   4.805   1.022   2.043
  166POPC   C1119597   4.782   0.682   2.251
  166POPC  H11A19598   4.809   0.577   2.274
  166POPC  H11B19599   4.735   0.678   2.150
  166POPC     P19600   4.721   0.718   2.501
  166POPC   O1319601   4.759   0.852   2.550
  166POPC   O1419602   4.819   0.609   2.514
  166POPC   O1219603   4.687   0.732   2.345
  166POPC   O1119604   4.581   0.674   2.560
  166POPC    C119605   4.509   0.569   2.493
  166POPC    HA19606   4.576   0.486   2.463
  166POPC    HB19607   4.462   0.610   2.401
  166POPC    C219608   4.397   0.507   2.583
  166POPC    HS19609   4.330   0.449   2.518
  166POPC   O2119610   4.322   0.608   2.654
  166POPC   C2119611   4.270   0.703   2.580
  166POPC   O2219612   4.241   0.694   2.462
  166POPC   C2219613   4.248   0.827   2.667
  166POPC   H2R19614   4.312   0.815   2.758
  166POPC   H2S19615   4.142   0.829   2.699
  166POPC    C319616   4.457   0.410   2.688
  166POPC    HX19617   4.518   0.335   2.634
  166POPC    HY19618   4.374   0.355   2.738
  166POPC   O3119619   4.528   0.481   2.791
  166POPC   C3119620   4.645   0.432   2.826
  166POPC   O3219621   4.701   0.336   2.776
  166POPC   C3219622   4.693   0.507   2.950
  166POPC   H2X19623   4.724   0.426   3.021
  166POPC   H2Y19624   4.608   0.562   2.995
  166POPC   C2319625   4.287   0.956   2.593
  166POPC   H3R19626   4.218   0.972   2.507
  166POPC   H3S19627   4.389   0.945   2.551
  166POPC   C2419628   4.287   1.082   2.682
  166POPC   H4R19629   4.183   1.102   2.715
  166POPC   H4S19630   4.321   1.168   2.621
  166POPC   C2519631   4.377   1.072   2.806
  166POPC   H5R19632   4.333   1.001   2.879
  166POPC   H5S19633   4.382   1.172   2.856
  166POPC   C2619634   4.521   1.029   2.774
  166POPC   H6R19635   4.562   1.097   2.697
  166POPC   H6S19636   4.523   0.926   2.732
  166POPC   C2719637   4.615   1.032   2.896
  166POPC   H7R19638   4.619   1.136   2.936
  166POPC   H7S19639   4.716   1.007   2.856
  166POPC   C2819640   4.581   0.931   3.007
  166POPC   H8R19641   4.581   0.830   2.962
  166POPC   H8S19642   4.479   0.952   3.047
  166POPC   C2919643   4.686   0.940   3.115
  166POPC   H9119644   4.783   0.977   3.081
  166POPC  C21019645   4.673   0.903   3.244
  166POPC  H10119646   4.761   0.914   3.310
  166POPC  C21119647   4.552   0.845   3.313
  166POPC  H11R19648   4.576   0.749   3.363
  166POPC  H11S19649   4.471   0.823   3.239
  166POPC  C21219650   4.496   0.943   3.417
  166POPC  H12R19651   4.401   0.904   3.458
  166POPC  H12S19652   4.473   1.035   3.360
  166POPC  C21319653   4.590   0.980   3.534
  166POPC  H13R19654   4.545   1.063   3.593
  166POPC  H13S19655   4.686   1.019   3.493
  166POPC  C21419656   4.623   0.865   3.631
  166POPC  H14R19657   4.705   0.897   3.700
  166POPC  H14S19658   4.663   0.781   3.571
  166POPC  C21519659   4.505   0.816   3.716
  166POPC  H15R19660   4.531   0.718   3.761
  166POPC  H15S19661   4.416   0.800   3.651
  166POPC  C21619662   4.469   0.913   3.831
  166POPC  H16R19663   4.442   1.010   3.786
  166POPC  H16S19664   4.557   0.929   3.896
  166POPC  C21719665   4.350   0.866   3.916
  166POPC  H17R19666   4.276   0.818   3.848
  166POPC  H17S19667   4.302   0.955   3.962
  166POPC  C21819668   4.382   0.765   4.027
  166POPC  H18R19669   4.416   0.669   3.983
  166POPC  H18S19670   4.292   0.744   4.088
  166POPC  H18T19671   4.462   0.805   4.094
  166POPC   C3319672   4.810   0.604   2.920
  166POPC   H3X19673   4.771   0.694   2.869
  166POPC   H3Y19674   4.879   0.556   2.847
  166POPC   C3419675   4.896   0.649   3.042
  166POPC   H4X19676   4.869   0.753   3.070
  166POPC   H4Y19677   5.002   0.652   3.007
  166POPC   C3519678   4.891   0.562   3.168
  166POPC   H5X19679   4.982   0.579   3.229
  166POPC   H5Y19680   4.891   0.454   3.140
  166POPC   C3619681   4.769   0.589   3.257
  166POPC   H6X19682   4.680   0.609   3.194
  166POPC   H6Y19683   4.789   0.680   3.317
  166POPC   C3719684   4.736   0.472   3.351
  166POPC   H7X19685   4.801   0.385   3.327
  166POPC   H7Y19686   4.630   0.442   3.334
  166POPC   C3819687   4.754   0.507   3.498
  166POPC   H8X19688   4.724   0.420   3.560
  166POPC   H8Y19689   4.682   0.589   3.522
  166POPC   C3919690   4.898   0.547   3.532
  166POPC   H9X19691   4.916   0.652   3.501
  166POPC   H9Y19692   4.967   0.482   3.474
  166POPC  C31019693   4.928   0.529   3.681
  166POPC  H10X19694   5.033   0.556   3.704
  166POPC  H10Y19695   4.914   0.421   3.703
  166POPC  C31119696   4.832   0.609   3.769
  166POPC  H11X19697   4.731   0.611   3.724
  166POPC  H11Y19698   4.866   0.715   3.778
  166POPC  C31219699   4.815   0.547   3.907
  166POPC  H12X19700   4.907   0.567   3.966
  166POPC  H12Y19701   4.804   0.436   3.898
  166POPC  C31319702   4.688   0.601   3.973
  166POPC  H13X19703   4.601   0.573   3.909
  166POPC  H13Y19704   4.691   0.712   3.974
  166POPC  C31419705   4.660   0.546   4.113
  166POPC  H14X19706   4.632   0.439   4.103
  166POPC  H14Y19707   4.571   0.599   4.154
  166POPC  C31519708   4.776   0.557   4.212
  166POPC  H15X19709   4.761   0.646   4.278
  166POPC  H15Y19710   4.873   0.573   4.161
  166POPC  C31619711   4.790   0.431   4.296
  166POPC  H16X19712   4.701   0.412   4.359
  166POPC  H16Y19713   4.879   0.444   4.362
  166POPC  H16Z19714   4.806   0.342   4.231
  167POPC     N19715   0.643   3.371   2.269
  167POPC   C1219716   0.506   3.410   2.218
  167POPC  H12A19717   0.432   3.369   2.286
  167POPC  H12B19718   0.491   3.366   2.121
  167POPC   C1319719   0.720   3.294   2.167
  167POPC  H13A19720   0.748   3.356   2.084
  167POPC  H13B19721   0.811   3.255   2.212
  167POPC  H13C19722   0.665   3.208   2.132
  167POPC   C1419723   0.722   3.494   2.305
  167POPC  H14A19724   0.739   3.555   2.217
  167POPC  H14B19725   0.663   3.556   2.371
  167POPC  H14C19726   0.817   3.471   2.351
  167POPC   C1519727   0.628   3.288   2.393
  167POPC  H15A19728   0.580   3.194   2.372
  167POPC  H15B19729   0.569   3.342   2.466
  167POPC  H15C19730   0.724   3.266   2.436
  167POPC   C1119731   0.472   3.561   2.209
  167POPC  H11A19732   0.372   3.571   2.161
  167POPC  H11B19733   0.544   3.613   2.143
  167POPC     P19734   0.349   3.617   2.434
  167POPC   O1319735   0.231   3.590   2.348
  167POPC   O1419736   0.349   3.738   2.517
  167POPC   O1219737   0.475   3.622   2.338
  167POPC   O1119738   0.383   3.489   2.523
  167POPC    C119739   0.472   3.504   2.635
  167POPC    HA19740   0.530   3.599   2.635
  167POPC    HB19741   0.547   3.422   2.631
  167POPC    C219742   0.405   3.491   2.776
  167POPC    HS19743   0.489   3.492   2.848
  167POPC   O2119744   0.330   3.367   2.781
  167POPC   C2119745   0.320   3.318   2.904
  167POPC   O2219746   0.402   3.334   2.993
  167POPC   C2219747   0.191   3.237   2.915
  167POPC   H2R19748   0.207   3.141   2.862
  167POPC   H2S19749   0.110   3.294   2.865
  167POPC    C319750   0.310   3.609   2.814
  167POPC    HX19751   0.218   3.599   2.753
  167POPC    HY19752   0.359   3.704   2.782
  167POPC   O3119753   0.276   3.605   2.955
  167POPC   C3119754   0.315   3.707   3.030
  167POPC   O3219755   0.373   3.807   2.991
  167POPC   C3219756   0.284   3.678   3.178
  167POPC   H2X19757   0.339   3.586   3.206
  167POPC   H2Y19758   0.175   3.658   3.187
  167POPC   C2319759   0.152   3.210   3.062
  167POPC   H3R19760   0.232   3.155   3.116
  167POPC   H3S19761   0.062   3.145   3.063
  167POPC   C2419762   0.124   3.336   3.144
  167POPC   H4R19763   0.042   3.396   3.099
  167POPC   H4S19764   0.214   3.400   3.149
  167POPC   C2519765   0.087   3.294   3.287
  167POPC   H5R19766   0.175   3.242   3.331
  167POPC   H5S19767   0.005   3.220   3.282
  167POPC   C2619768   0.044   3.410   3.375
  167POPC   H6R19769  -0.040   3.462   3.326
  167POPC   H6S19770   0.126   3.483   3.389
  167POPC   C2719771  -0.004   3.358   3.511
  167POPC   H7R19772  -0.079   3.278   3.490
  167POPC   H7S19773  -0.057   3.440   3.563
  167POPC   C2819774   0.106   3.298   3.602
  167POPC   H8R19775   0.177   3.239   3.541
  167POPC   H8S19776   0.060   3.225   3.672
  167POPC   C2919777   0.174   3.406   3.682
  167POPC   H9119778   0.118   3.442   3.769
  167POPC  C21019779   0.293   3.460   3.653
  167POPC  H10119780   0.332   3.540   3.718
  167POPC  C21119781   0.382   3.425   3.537
  167POPC  H11R19782   0.334   3.458   3.442
  167POPC  H11S19783   0.394   3.315   3.527
  167POPC  C21219784   0.521   3.490   3.547
  167POPC  H12R19785   0.518   3.600   3.564
  167POPC  H12S19786   0.567   3.479   3.446
  167POPC  C21319787   0.611   3.424   3.651
  167POPC  H13R19788   0.716   3.424   3.615
  167POPC  H13S19789   0.577   3.318   3.655
  167POPC  C21419790   0.610   3.482   3.792
  167POPC  H14R19791   0.656   3.407   3.859
  167POPC  H14S19792   0.506   3.499   3.830
  167POPC  C21519793   0.692   3.610   3.804
  167POPC  H15R19794   0.631   3.697   3.772
  167POPC  H15S19795   0.779   3.603   3.734
  167POPC  C21619796   0.746   3.632   3.946
  167POPC  H16R19797   0.664   3.610   4.017
  167POPC  H16S19798   0.773   3.739   3.959
  167POPC  C21719799   0.868   3.544   3.976
  167POPC  H17R19800   0.961   3.605   3.967
  167POPC  H17S19801   0.876   3.464   3.900
  167POPC  C21819802   0.863   3.479   4.114
  167POPC  H18R19803   0.781   3.404   4.117
  167POPC  H18S19804   0.844   3.555   4.193
  167POPC  H18T19805   0.958   3.428   4.138
  167POPC   C3319806   0.326   3.794   3.271
  167POPC   H3X19807   0.264   3.884   3.249
  167POPC   H3Y19808   0.432   3.820   3.252
  167POPC   C3419809   0.313   3.759   3.421
  167POPC   H4X19810   0.370   3.665   3.436
  167POPC   H4Y19811   0.207   3.738   3.446
  167POPC   C3519812   0.370   3.867   3.514
  167POPC   H5X19813   0.306   3.957   3.505
  167POPC   H5Y19814   0.472   3.894   3.478
  167POPC   C3619815   0.381   3.831   3.664
  167POPC   H6X19816   0.432   3.914   3.716
  167POPC   H6Y19817   0.445   3.741   3.677
  167POPC   C3719818   0.247   3.803   3.733
  167POPC   H7X19819   0.193   3.723   3.678
  167POPC   H7Y19820   0.185   3.895   3.726
  167POPC   C3819821   0.263   3.761   3.881
  167POPC   H8X19822   0.341   3.683   3.889
  167POPC   H8Y19823   0.168   3.716   3.916
  167POPC   C3919824   0.298   3.879   3.972
  167POPC   H9X19825   0.220   3.958   3.960
  167POPC   H9Y19826   0.395   3.922   3.938
  167POPC  C31019827   0.309   3.845   4.121
  167POPC  H10X19828   0.219   3.789   4.154
  167POPC  H10Y19829   0.313   3.939   4.180
  167POPC  C31119830   0.435   3.764   4.155
  167POPC  H11X19831   0.525   3.814   4.112
  167POPC  H11Y19832   0.426   3.664   4.106
  167POPC  C31219833   0.456   3.748   4.307
  167POPC  H12X19834   0.362   3.708   4.351
  167POPC  H12Y19835   0.475   3.847   4.352
  167POPC  C31319836   0.571   3.652   4.344
  167POPC  H13X19837   0.576   3.645   4.454
  167POPC  H13Y19838   0.668   3.690   4.306
  167POPC  C31419839   0.545   3.512   4.287
  167POPC  H14X19840   0.566   3.509   4.178
  167POPC  H14Y19841   0.436   3.494   4.299
  167POPC  C31519842   0.621   3.399   4.356
  167POPC  H15X19843   0.612   3.407   4.467
  167POPC  H15Y19844   0.730   3.410   4.334
  167POPC  C31619845   0.574   3.262   4.310
  167POPC  H16X19846   0.544   3.264   4.203
  167POPC  H16Y19847   0.486   3.226   4.369
  167POPC  H16Z19848   0.655   3.187   4.323
  168POPC     N19849   1.673   6.675   2.248
  168POPC   C1219850   1.807   6.658   2.320
  168POPC  H12A19851   1.828   6.748   2.377
  168POPC  H12B19852   1.884   6.647   2.246
  168POPC   C1319853   1.560   6.668   2.346
  168POPC  H13A19854   1.565   6.575   2.401
  168POPC  H13B19855   1.562   6.750   2.417
  168POPC  H13C19856   1.465   6.670   2.295
  168POPC   C1419857   1.660   6.802   2.172
  168POPC  H14A19858   1.564   6.806   2.124
  168POPC  H14B19859   1.664   6.889   2.237
  168POPC  H14C19860   1.733   6.811   2.092
  168POPC   C1519861   1.653   6.563   2.151
  168POPC  H15A19862   1.726   6.562   2.071
  168POPC  H15B19863   1.554   6.567   2.106
  168POPC  H15C19864   1.660   6.467   2.200
  168POPC   C1119865   1.825   6.538   2.418
  168POPC  H11A19866   1.755   6.548   2.504
  168POPC  H11B19867   1.927   6.544   2.461
  168POPC     P19868   1.700   6.306   2.380
  168POPC   O1319869   1.747   6.202   2.472
  168POPC   O1419870   1.640   6.266   2.250
  168POPC   O1219871   1.813   6.413   2.349
  168POPC   O1119872   1.591   6.396   2.451
  168POPC    C119873   1.478   6.334   2.511
  168POPC    HA19874   1.508   6.261   2.588
  168POPC    HB19875   1.417   6.282   2.435
  168POPC    C219876   1.391   6.442   2.579
  168POPC    HS19877   1.370   6.521   2.503
  168POPC   O2119878   1.465   6.496   2.690
  168POPC   C2119879   1.429   6.617   2.730
  168POPC   O2219880   1.342   6.686   2.679
  168POPC   C2219881   1.526   6.666   2.838
  168POPC   H2R19882   1.515   6.776   2.845
  168POPC   H2S19883   1.629   6.642   2.803
  168POPC    C319884   1.254   6.382   2.623
  168POPC    HX19885   1.196   6.360   2.531
  168POPC    HY19886   1.199   6.460   2.679
  168POPC   O3119887   1.273   6.259   2.695
  168POPC   C3119888   1.303   6.279   2.824
  168POPC   O3219889   1.277   6.380   2.886
  168POPC   C3219890   1.383   6.162   2.878
  168POPC   H2X19891   1.421   6.103   2.793
  168POPC   H2Y19892   1.316   6.101   2.942
  168POPC   C2319893   1.504   6.603   2.977
  168POPC   H3R19894   1.589   6.634   3.042
  168POPC   H3S19895   1.506   6.493   2.971
  168POPC   C2419896   1.374   6.649   3.045
  168POPC   H4R19897   1.287   6.595   3.001
  168POPC   H4S19898   1.359   6.757   3.026
  168POPC   C2519899   1.374   6.629   3.197
  168POPC   H5R19900   1.280   6.674   3.236
  168POPC   H5S19901   1.458   6.685   3.243
  168POPC   C2619902   1.381   6.484   3.248
  168POPC   H6R19903   1.465   6.430   3.200
  168POPC   H6S19904   1.287   6.432   3.221
  168POPC   C2719905   1.400   6.482   3.400
  168POPC   H7R19906   1.340   6.565   3.444
  168POPC   H7S19907   1.506   6.504   3.426
  168POPC   C2819908   1.353   6.353   3.468
  168POPC   H8R19909   1.248   6.335   3.436
  168POPC   H8S19910   1.350   6.375   3.577
  168POPC   C2919911   1.437   6.231   3.440
  168POPC   H9119912   1.495   6.234   3.347
  168POPC  C21019913   1.445   6.123   3.520
  168POPC  H10119914   1.508   6.039   3.489
  168POPC  C21119915   1.371   6.105   3.650
  168POPC  H11R19916   1.293   6.028   3.640
  168POPC  H11S19917   1.318   6.198   3.679
  168POPC  C21219918   1.459   6.067   3.771
  168POPC  H12R19919   1.542   6.140   3.782
  168POPC  H12S19920   1.503   5.966   3.756
  168POPC  C21319921   1.374   6.067   3.899
  168POPC  H13R19922   1.297   5.987   3.891
  168POPC  H13S19923   1.322   6.165   3.905
  168POPC  C21419924   1.451   6.049   4.031
  168POPC  H14R19925   1.507   5.952   4.030
  168POPC  H14S19926   1.376   6.043   4.112
  168POPC  C21519927   1.547   6.164   4.065
  168POPC  H15R19928   1.499   6.261   4.042
  168POPC  H15S19929   1.638   6.155   4.003
  168POPC  C21619930   1.583   6.161   4.215
  168POPC  H16R19931   1.609   6.056   4.242
  168POPC  H16S19932   1.492   6.190   4.272
  168POPC  C21719933   1.700   6.248   4.258
  168POPC  H17R19934   1.699   6.256   4.369
  168POPC  H17S19935   1.686   6.351   4.218
  168POPC  C21819936   1.836   6.193   4.215
  168POPC  H18R19937   1.843   6.186   4.105
  168POPC  H18S19938   1.852   6.091   4.257
  168POPC  H18T19939   1.918   6.259   4.252
  168POPC   C3319940   1.503   6.217   2.958
  168POPC   H3X19941   1.468   6.296   3.028
  168POPC   H3Y19942   1.575   6.262   2.887
  168POPC   C3419943   1.575   6.113   3.045
  168POPC   H4X19944   1.584   6.017   2.989
  168POPC   H4Y19945   1.514   6.094   3.136
  168POPC   C3519946   1.716   6.159   3.085
  168POPC   H5X19947   1.784   6.132   3.002
  168POPC   H5Y19948   1.747   6.102   3.176
  168POPC   C3619949   1.736   6.309   3.114
  168POPC   H6X19950   1.663   6.343   3.190
  168POPC   H6Y19951   1.717   6.366   3.020
  168POPC   C3719952   1.878   6.342   3.161
  168POPC   H7X19953   1.898   6.449   3.140
  168POPC   H7Y19954   1.953   6.284   3.103
  168POPC   C3819955   1.899   6.318   3.311
  168POPC   H8X19956   1.967   6.232   3.330
  168POPC   H8Y19957   1.800   6.290   3.355
  168POPC   C3919958   1.954   6.440   3.384
  168POPC   H9X19959   1.914   6.533   3.338
  168POPC   H9Y19960   2.065   6.443   3.372
  168POPC  C31019961   1.916   6.443   3.533
  168POPC  H10X19962   1.975   6.524   3.581
  168POPC  H10Y19963   1.946   6.347   3.582
  168POPC  C31119964   1.766   6.470   3.554
  168POPC  H11X19965   1.707   6.380   3.530
  168POPC  H11Y19966   1.736   6.550   3.483
  168POPC  C31219967   1.731   6.517   3.696
  168POPC  H12X19968   1.627   6.556   3.697
  168POPC  H12Y19969   1.798   6.602   3.722
  168POPC  C31319970   1.745   6.408   3.802
  168POPC  H13X19971   1.834   6.346   3.779
  168POPC  H13Y19972   1.656   6.342   3.797
  168POPC  C31419973   1.763   6.463   3.944
  168POPC  H14X19974   1.867   6.501   3.954
  168POPC  H14Y19975   1.751   6.379   4.016
  168POPC  C31519976   1.669   6.578   3.982
  168POPC  H15X19977   1.564   6.549   3.961
  168POPC  H15Y19978   1.694   6.664   3.917
  168POPC  C31619979   1.683   6.622   4.128
  168POPC  H16X19980   1.631   6.551   4.196
  168POPC  H16Y19981   1.638   6.723   4.142
  168POPC  H16Z19982   1.790   6.628   4.157
  169POPC     N19983   7.084   2.589   2.141
  169POPC   C1219984   6.997   2.480   2.206
  169POPC  H12A19985   7.063   2.414   2.259
  169POPC  H12B19986   6.946   2.420   2.133
  169POPC   C1319987   7.012   2.720   2.142
  169POPC  H13A19988   6.925   2.719   2.078
  169POPC  H13B19989   6.977   2.738   2.243
  169POPC  H13C19990   7.077   2.802   2.115
  169POPC   C1419991   7.205   2.606   2.227
  169POPC  H14A19992   7.263   2.515   2.233
  169POPC  H14B19993   7.269   2.686   2.195
  169POPC  H14C19994   7.173   2.624   2.328
  169POPC   C1519995   7.131   2.552   2.004
  169POPC  H15A19996   7.183   2.458   2.006
  169POPC  H15B19997   7.202   2.626   1.969
  169POPC  H15C19998   7.049   2.545   1.934
  169POPC   C1119999   6.895   2.527   2.313
  169POPC  H11A20000   6.842   2.438   2.354
  169POPC  H11B20001   6.816   2.590   2.267
  169POPC     P20002   7.041   2.521   2.527
  169POPC   O1320003   7.141   2.440   2.454
  169POPC   O1420004   6.948   2.451   2.618
  169POPC   O1220005   6.959   2.602   2.417
  169POPC   O1120006   7.117   2.636   2.603
  169POPC    C120007   7.194   2.733   2.532
  169POPC    HA20008   7.131   2.790   2.460
  169POPC    HB20009   7.276   2.682   2.476
  169POPC    C220010   7.262   2.835   2.628
  169POPC    HS20011   7.349   2.883   2.576
  169POPC   O2120012   7.306   2.772   2.748
  169POPC   C2120013   7.379   2.665   2.736
  169POPC   O2220014   7.454   2.638   2.644
  169POPC   C2220015   7.359   2.582   2.862
  169POPC   H2R20016   7.429   2.495   2.860
  169POPC   H2S20017   7.254   2.544   2.860
  169POPC    C320018   7.164   2.947   2.668
  169POPC    HX20019   7.150   3.012   2.579
  169POPC    HY20020   7.209   3.009   2.749
  169POPC   O3120021   7.036   2.892   2.705
  169POPC   C3120022   7.022   2.851   2.830
  169POPC   O3220023   7.091   2.883   2.925
  169POPC   C3220024   6.900   2.758   2.834
  169POPC   H2X20025   6.920   2.670   2.769
  169POPC   H2Y20026   6.816   2.815   2.789
  169POPC   C2320027   7.379   2.668   2.988
  169POPC   H3R20028   7.317   2.759   2.982
  169POPC   H3S20029   7.486   2.700   2.994
  169POPC   C2420030   7.340   2.596   3.117
  169POPC   H4R20031   7.398   2.502   3.124
  169POPC   H4S20032   7.232   2.570   3.116
  169POPC   C2520033   7.371   2.683   3.239
  169POPC   H5R20034   7.478   2.712   3.233
  169POPC   H5S20035   7.358   2.620   3.330
  169POPC   C2620036   7.290   2.813   3.255
  169POPC   H6R20037   7.300   2.874   3.163
  169POPC   H6S20038   7.335   2.870   3.338
  169POPC   C2720039   7.140   2.793   3.283
  169POPC   H7R20040   7.095   2.745   3.193
  169POPC   H7S20041   7.087   2.891   3.292
  169POPC   C2820042   7.109   2.707   3.406
  169POPC   H8R20043   7.156   2.608   3.387
  169POPC   H8S20044   6.999   2.688   3.403
  169POPC   C2920045   7.155   2.757   3.541
  169POPC   H9120046   7.263   2.777   3.547
  169POPC  C21020047   7.079   2.779   3.650
  169POPC  H10120048   7.128   2.815   3.742
  169POPC  C21120049   6.930   2.758   3.661
  169POPC  H11R20050   6.886   2.725   3.565
  169POPC  H11S20051   6.887   2.859   3.681
  169POPC  C21220052   6.876   2.662   3.770
  169POPC  H12R20053   6.948   2.582   3.796
  169POPC  H12S20054   6.787   2.612   3.726
  169POPC  C21320055   6.828   2.737   3.895
  169POPC  H13R20056   6.777   2.828   3.857
  169POPC  H13S20057   6.914   2.773   3.956
  169POPC  C21420058   6.724   2.663   3.981
  169POPC  H14R20059   6.668   2.588   3.920
  169POPC  H14S20060   6.649   2.739   4.013
  169POPC  C21520061   6.781   2.600   4.108
  169POPC  H15R20062   6.872   2.656   4.139
  169POPC  H15S20063   6.810   2.495   4.087
  169POPC  C21620064   6.684   2.608   4.226
  169POPC  H16R20065   6.584   2.572   4.193
  169POPC  H16S20066   6.671   2.715   4.255
  169POPC  C21720067   6.730   2.528   4.347
  169POPC  H17R20068   6.835   2.555   4.371
  169POPC  H17S20069   6.730   2.420   4.320
  169POPC  C21820070   6.643   2.549   4.471
  169POPC  H18R20071   6.537   2.524   4.449
  169POPC  H18S20072   6.647   2.655   4.504
  169POPC  H18T20073   6.678   2.485   4.555
  169POPC   C3320074   6.859   2.711   2.975
  169POPC   H3X20075   6.753   2.677   2.968
  169POPC   H3Y20076   6.863   2.794   3.048
  169POPC   C3420077   6.929   2.586   3.030
  169POPC   H4X20078   7.036   2.610   3.050
  169POPC   H4Y20079   6.926   2.504   2.955
  169POPC   C3520080   6.855   2.543   3.158
  169POPC   H5X20081   6.754   2.506   3.131
  169POPC   H5Y20082   6.841   2.634   3.221
  169POPC   C3620083   6.925   2.437   3.245
  169POPC   H6X20084   7.027   2.475   3.268
  169POPC   H6Y20085   6.936   2.342   3.188
  169POPC   C3720086   6.845   2.413   3.375
  169POPC   H7X20087   6.752   2.359   3.348
  169POPC   H7Y20088   6.815   2.512   3.416
  169POPC   C3820089   6.919   2.337   3.487
  169POPC   H8X20090   6.945   2.236   3.450
  169POPC   H8Y20091   6.850   2.326   3.573
  169POPC   C3920092   7.044   2.413   3.533
  169POPC   H9X20093   7.014   2.518   3.550
  169POPC   H9Y20094   7.118   2.411   3.450
  169POPC  C31020095   7.115   2.366   3.660
  169POPC  H10X20096   7.121   2.255   3.663
  169POPC  H10Y20097   7.055   2.397   3.748
  169POPC  C31120098   7.257   2.426   3.667
  169POPC  H11X20099   7.257   2.528   3.623
  169POPC  H11Y20100   7.325   2.365   3.603
  169POPC  C31220101   7.314   2.437   3.809
  169POPC  H12X20102   7.425   2.448   3.805
  169POPC  H12Y20103   7.291   2.344   3.865
  169POPC  C31320104   7.257   2.559   3.882
  169POPC  H13X20105   7.151   2.570   3.849
  169POPC  H13Y20106   7.310   2.652   3.852
  169POPC  C31420107   7.254   2.546   4.035
  169POPC  H14X20108   7.356   2.561   4.077
  169POPC  H14Y20109   7.221   2.444   4.062
  169POPC  C31520110   7.155   2.646   4.095
  169POPC  H15X20111   7.058   2.631   4.042
  169POPC  H15Y20112   7.188   2.750   4.073
  169POPC  C31620113   7.131   2.629   4.245
  169POPC  H16X20114   7.226   2.643   4.302
  169POPC  H16Y20115   7.091   2.528   4.266
  169POPC  H16Z20116   7.057   2.704   4.282
  170POPC     N20117   0.943   1.915   2.196
  170POPC   C1220118   0.800   1.950   2.158
  170POPC  H12A20119   0.759   1.869   2.100
  170POPC  H12B20120   0.801   2.037   2.094
  170POPC   C1320121   1.012   2.036   2.252
  170POPC  H13A20122   1.019   2.115   2.179
  170POPC  H13B20123   0.952   2.076   2.333
  170POPC  H13C20124   1.111   2.014   2.289
  170POPC   C1420125   0.940   1.809   2.301
  170POPC  H14A20126   0.885   1.847   2.386
  170POPC  H14B20127   0.888   1.722   2.264
  170POPC  H14C20128   1.039   1.780   2.331
  170POPC   C1520129   1.018   1.868   2.075
  170POPC  H15A20130   1.120   1.847   2.101
  170POPC  H15B20131   1.016   1.944   1.998
  170POPC  H15C20132   0.974   1.778   2.035
  170POPC   C1120133   0.702   1.977   2.275
  170POPC  H11A20134   0.680   1.883   2.329
  170POPC  H11B20135   0.605   2.011   2.233
  170POPC     P20136   0.692   2.208   2.397
  170POPC   O1320137   0.555   2.181   2.443
  170POPC   O1420138   0.708   2.289   2.274
  170POPC   O1220139   0.760   2.069   2.366
  170POPC   O1120140   0.781   2.267   2.514
  170POPC    C120141   0.873   2.190   2.592
  170POPC    HA20142   0.910   2.253   2.675
  170POPC    HB20143   0.962   2.162   2.531
  170POPC    C220144   0.813   2.061   2.657
  170POPC    HS20145   0.778   1.995   2.575
  170POPC   O2120146   0.704   2.099   2.743
  170POPC   C2120147   0.606   2.010   2.749
  170POPC   O2220148   0.612   1.895   2.706
  170POPC   C2220149   0.484   2.073   2.814
  170POPC   H2R20150   0.399   2.001   2.807
  170POPC   H2S20151   0.458   2.163   2.754
  170POPC    C320152   0.921   1.977   2.732
  170POPC    HX20153   1.002   1.956   2.659
  170POPC    HY20154   0.876   1.879   2.760
  170POPC   O3120155   0.979   2.048   2.843
  170POPC   C3120156   0.940   2.008   2.964
  170POPC   O3220157   0.863   1.916   2.985
  170POPC   C3220158   1.007   2.095   3.070
  170POPC   H2X20159   0.930   2.163   3.111
  170POPC   H2Y20160   1.086   2.156   3.021
  170POPC   C2320161   0.507   2.114   2.962
  170POPC   H3R20162   0.421   2.175   2.997
  170POPC   H3S20163   0.598   2.178   2.970
  170POPC   C2420164   0.520   1.992   3.053
  170POPC   H4R20165   0.599   1.925   3.012
  170POPC   H4S20166   0.425   1.935   3.054
  170POPC   C2520167   0.560   2.028   3.197
  170POPC   H5R20168   0.476   2.079   3.249
  170POPC   H5S20169   0.647   2.097   3.195
  170POPC   C2620170   0.600   1.901   3.274
  170POPC   H6R20171   0.679   1.850   3.214
  170POPC   H6S20172   0.513   1.832   3.279
  170POPC   C2720173   0.656   1.926   3.414
  170POPC   H7R20174   0.723   2.014   3.415
  170POPC   H7S20175   0.717   1.837   3.440
  170POPC   C2820176   0.547   1.946   3.521
  170POPC   H8R20177   0.466   1.872   3.503
  170POPC   H8S20178   0.502   2.046   3.508
  170POPC   C2920179   0.606   1.926   3.658
  170POPC   H9120180   0.606   1.823   3.696
  170POPC  C21020181   0.658   2.023   3.734
  170POPC  H10120182   0.698   1.998   3.834
  170POPC  C21120183   0.666   2.167   3.694
  170POPC  H11R20184   0.670   2.180   3.584
  170POPC  H11S20185   0.758   2.214   3.737
  170POPC  C21220186   0.545   2.244   3.749
  170POPC  H12R20187   0.450   2.198   3.715
  170POPC  H12S20188   0.548   2.347   3.709
  170POPC  C21320189   0.549   2.249   3.902
  170POPC  H13R20190   0.647   2.210   3.936
  170POPC  H13S20191   0.470   2.185   3.946
  170POPC  C21420192   0.538   2.392   3.954
  170POPC  H14R20193   0.436   2.429   3.927
  170POPC  H14S20194   0.613   2.454   3.902
  170POPC  C21520195   0.559   2.406   4.105
  170POPC  H15R20196   0.490   2.336   4.158
  170POPC  H15S20197   0.531   2.510   4.133
  170POPC  C21620198   0.702   2.380   4.152
  170POPC  H16R20199   0.772   2.441   4.092
  170POPC  H16S20200   0.726   2.273   4.132
  170POPC  C21720201   0.725   2.410   4.300
  170POPC  H17R20202   0.662   2.497   4.330
  170POPC  H17S20203   0.831   2.439   4.314
  170POPC  C21820204   0.694   2.293   4.394
  170POPC  H18R20205   0.592   2.254   4.375
  170POPC  H18S20206   0.700   2.326   4.500
  170POPC  H18T20207   0.768   2.212   4.378
  170POPC   C3320208   1.071   2.013   3.186
  170POPC   H3X20209   1.134   2.082   3.246
  170POPC   H3Y20210   1.138   1.934   3.145
  170POPC   C3420211   0.965   1.952   3.278
  170POPC   H4X20212   0.910   1.873   3.221
  170POPC   H4Y20213   0.892   2.031   3.303
  170POPC   C3520214   1.017   1.887   3.406
  170POPC   H5X20215   1.116   1.839   3.386
  170POPC   H5Y20216   0.946   1.807   3.436
  170POPC   C3620217   1.029   1.984   3.524
  170POPC   H6X20218   0.938   2.048   3.526
  170POPC   H6Y20219   1.117   2.050   3.509
  170POPC   C3720220   1.040   1.917   3.662
  170POPC   H7X20221   1.134   1.858   3.667
  170POPC   H7Y20222   0.955   1.848   3.678
  170POPC   C3820223   1.039   2.023   3.773
  170POPC   H8X20224   0.940   2.074   3.775
  170POPC   H8Y20225   1.117   2.099   3.749
  170POPC   C3920226   1.075   1.973   3.912
  170POPC   H9X20227   1.183   1.950   3.909
  170POPC   H9Y20228   1.021   1.879   3.937
  170POPC  C31020229   1.056   2.080   4.021
  170POPC  H10X20230   1.100   2.176   3.986
  170POPC  H10Y20231   1.112   2.049   4.112
  170POPC  C31120232   0.910   2.103   4.062
  170POPC  H11X20233   0.856   2.152   3.978
  170POPC  H11Y20234   0.910   2.174   4.148
  170POPC  C31220235   0.834   1.976   4.102
  170POPC  H12X20236   0.890   1.926   4.184
  170POPC  H12Y20237   0.829   1.906   4.016
  170POPC  C31320238   0.690   2.004   4.149
  170POPC  H13X20239   0.632   2.051   4.067
  170POPC  H13Y20240   0.695   2.075   4.234
  170POPC  C31420241   0.616   1.877   4.193
  170POPC  H14X20242   0.677   1.830   4.273
  170POPC  H14Y20243   0.617   1.804   4.110
  170POPC  C31520244   0.471   1.900   4.241
  170POPC  H15X20245   0.441   1.812   4.302
  170POPC  H15Y20246   0.403   1.903   4.154
  170POPC  C31620247   0.443   2.029   4.319
  170POPC  H16X20248   0.457   2.117   4.252
  170POPC  H16Y20249   0.512   2.040   4.406
  170POPC  H16Z20250   0.339   2.030   4.356
  171POPC     N20251   3.254   0.074   2.397
  171POPC   C1220252   3.296   0.211   2.344
  171POPC  H12A20253   3.373   0.196   2.270
  171POPC  H12B20254   3.343   0.265   2.425
  171POPC   C1320255   3.189  -0.007   2.289
  171POPC  H13A20256   3.159  -0.105   2.324
  171POPC  H13B20257   3.101   0.045   2.256
  171POPC  H13C20258   3.255  -0.018   2.204
  171POPC   C1420259   3.375   0.000   2.446
  171POPC  H14A20260   3.348  -0.099   2.480
  171POPC  H14B20261   3.449  -0.009   2.367
  171POPC  H14C20262   3.421   0.053   2.528
  171POPC   C1520263   3.158   0.088   2.511
  171POPC  H15A20264   3.203   0.138   2.595
  171POPC  H15B20265   3.121  -0.007   2.544
  171POPC  H15C20266   3.073   0.147   2.481
  171POPC   C1120267   3.190   0.307   2.281
  171POPC  H11A20268   3.245   0.396   2.243
  171POPC  H11B20269   3.129   0.346   2.365
  171POPC     P20270   2.953   0.248   2.189
  171POPC   O1320271   2.890   0.145   2.103
  171POPC   O1420272   2.900   0.385   2.172
  171POPC   O1220273   3.112   0.251   2.172
  171POPC   O1120274   2.946   0.198   2.338
  171POPC    C120275   2.834   0.210   2.424
  171POPC    HA20276   2.810   0.110   2.466
  171POPC    HB20277   2.746   0.247   2.366
  171POPC    C220278   2.850   0.309   2.543
  171POPC    HS20279   2.814   0.407   2.504
  171POPC   O2120280   2.989   0.318   2.581
  171POPC   C2120281   3.019   0.430   2.647
  171POPC   O2220282   2.944   0.525   2.661
  171POPC   C2220283   3.160   0.421   2.703
  171POPC   H2R20284   3.203   0.524   2.703
  171POPC   H2S20285   3.221   0.358   2.635
  171POPC    C320286   2.759   0.269   2.665
  171POPC    HX20287   2.656   0.261   2.625
  171POPC    HY20288   2.759   0.354   2.736
  171POPC   O3120289   2.803   0.149   2.735
  171POPC   C3120290   2.704   0.078   2.792
  171POPC   O3220291   2.588   0.084   2.759
  171POPC   C3220292   2.753  -0.002   2.914
  171POPC   H2X20293   2.863  -0.015   2.908
  171POPC   H2Y20294   2.705  -0.102   2.911
  171POPC   C2320295   3.161   0.364   2.846
  171POPC   H3R20296   3.124   0.441   2.918
  171POPC   H3S20297   3.267   0.343   2.872
  171POPC   C2420298   3.074   0.238   2.861
  171POPC   H4R20299   3.093   0.170   2.775
  171POPC   H4S20300   2.967   0.268   2.858
  171POPC   C2520301   3.094   0.157   2.990
  171POPC   H5R20302   3.031   0.066   2.984
  171POPC   H5S20303   3.061   0.216   3.078
  171POPC   C2620304   3.238   0.110   3.008
  171POPC   H6R20305   3.290   0.112   2.910
  171POPC   H6S20306   3.241   0.006   3.046
  171POPC   C2720307   3.312   0.200   3.107
  171POPC   H7R20308   3.286   0.307   3.089
  171POPC   H7S20309   3.421   0.190   3.084
  171POPC   C2820310   3.289   0.165   3.254
  171POPC   H8R20311   3.304   0.056   3.270
  171POPC   H8S20312   3.184   0.189   3.283
  171POPC   C2920313   3.391   0.245   3.328
  171POPC   H9120314   3.494   0.208   3.316
  171POPC  C21020315   3.372   0.354   3.404
  171POPC  H10120316   3.460   0.405   3.447
  171POPC  C21120317   3.247   0.426   3.440
  171POPC  H11R20318   3.160   0.394   3.379
  171POPC  H11S20319   3.260   0.536   3.426
  171POPC  C21220320   3.224   0.395   3.589
  171POPC  H12R20321   3.139   0.459   3.621
  171POPC  H12S20322   3.311   0.422   3.653
  171POPC  C21320323   3.184   0.249   3.612
  171POPC  H13R20324   3.151   0.206   3.514
  171POPC  H13S20325   3.097   0.249   3.680
  171POPC  C21420326   3.286   0.150   3.668
  171POPC  H14R20327   3.346   0.195   3.749
  171POPC  H14S20328   3.354   0.118   3.586
  171POPC  C21520329   3.209   0.029   3.722
  171POPC  H15R20330   3.275  -0.061   3.723
  171POPC  H15S20331   3.124   0.006   3.653
  171POPC  C21620332   3.155   0.057   3.863
  171POPC  H16R20333   3.120   0.162   3.870
  171POPC  H16S20334   3.240   0.046   3.934
  171POPC  C21720335   3.039  -0.032   3.907
  171POPC  H17R20336   3.067  -0.139   3.892
  171POPC  H17S20337   2.950  -0.014   3.843
  171POPC  C21820338   3.005  -0.005   4.053
  171POPC  H18R20339   2.949  -0.091   4.097
  171POPC  H18S20340   2.945   0.088   4.064
  171POPC  H18T20341   3.098   0.007   4.112
  171POPC   C3320342   2.709   0.073   3.042
  171POPC   H3X20343   2.600   0.093   3.034
  171POPC   H3Y20344   2.764   0.170   3.041
  171POPC   C3420345   2.733   0.010   3.180
  171POPC   H4X20346   2.830   0.046   3.219
  171POPC   H4Y20347   2.742  -0.100   3.167
  171POPC   C3520348   2.621   0.035   3.286
  171POPC   H5X20349   2.663   0.001   3.383
  171POPC   H5Y20350   2.539  -0.035   3.259
  171POPC   C3620351   2.556   0.176   3.303
  171POPC   H6X20352   2.490   0.191   3.214
  171POPC   H6Y20353   2.635   0.253   3.300
  171POPC   C3720354   2.469   0.204   3.430
  171POPC   H7X20355   2.515   0.150   3.516
  171POPC   H7Y20356   2.370   0.154   3.415
  171POPC   C3820357   2.443   0.352   3.479
  171POPC   H8X20358   2.424   0.346   3.588
  171POPC   H8Y20359   2.348   0.387   3.432
  171POPC   C3920360   2.550   0.461   3.452
  171POPC   H9X20361   2.521   0.510   3.356
  171POPC   H9Y20362   2.647   0.411   3.430
  171POPC  C31020363   2.578   0.580   3.550
  171POPC  H10X20364   2.494   0.650   3.532
  171POPC  H10Y20365   2.670   0.632   3.517
  171POPC  C31120366   2.584   0.565   3.705
  171POPC  H11X20367   2.500   0.500   3.737
  171POPC  H11Y20368   2.563   0.666   3.746
  171POPC  C31220369   2.711   0.517   3.781
  171POPC  H12X20370   2.727   0.409   3.762
  171POPC  H12Y20371   2.685   0.527   3.888
  171POPC  C31320372   2.851   0.582   3.769
  171POPC  H13X20373   2.849   0.684   3.815
  171POPC  H13Y20374   2.883   0.591   3.663
  171POPC  C31420375   2.951   0.492   3.846
  171POPC  H14X20376   2.973   0.403   3.783
  171POPC  H14Y20377   2.900   0.453   3.937
  171POPC  C31520378   3.083   0.554   3.893
  171POPC  H15X20379   3.061   0.633   3.968
  171POPC  H15Y20380   3.135   0.602   3.807
  171POPC  C31620381   3.178   0.451   3.956
  171POPC  H16X20382   3.269   0.499   3.998
  171POPC  H16Y20383   3.211   0.376   3.880
  171POPC  H16Z20384   3.127   0.396   4.038
  172POPC     N20385   1.764   1.019   2.174
  172POPC   C1220386   1.905   1.046   2.224
  172POPC  H12A20387   1.909   1.148   2.260
  172POPC  H12B20388   1.974   1.040   2.141
  172POPC   C1320389   1.725   1.123   2.074
  172POPC  H13A20390   1.792   1.124   1.989
  172POPC  H13B20391   1.626   1.105   2.035
  172POPC  H13C20392   1.724   1.222   2.117
  172POPC   C1420393   1.754   0.885   2.108
  172POPC  H14A20394   1.824   0.874   2.027
  172POPC  H14B20395   1.776   0.808   2.181
  172POPC  H14C20396   1.654   0.866   2.071
  172POPC   C1520397   1.667   1.021   2.289
  172POPC  H15A20398   1.668   1.115   2.342
  172POPC  H15B20399   1.692   0.943   2.359
  172POPC  H15C20400   1.566   1.001   2.256
  172POPC   C1120401   1.964   0.955   2.335
  172POPC  H11A20402   1.900   0.962   2.426
  172POPC  H11B20403   2.063   0.995   2.366
  172POPC     P20404   1.917   0.700   2.363
  172POPC   O1320405   1.997   0.672   2.482
  172POPC   O1420406   1.902   0.594   2.261
  172POPC   O1220407   1.983   0.822   2.286
  172POPC   O1120408   1.776   0.761   2.399
  172POPC    C120409   1.652   0.694   2.379
  172POPC    HA20410   1.664   0.595   2.331
  172POPC    HB20411   1.586   0.755   2.314
  172POPC    C220412   1.575   0.672   2.512
  172POPC    HS20413   1.488   0.609   2.481
  172POPC   O2120414   1.533   0.800   2.566
  172POPC   C2120415   1.421   0.788   2.638
  172POPC   O2220416   1.349   0.690   2.636
  172POPC   C2220417   1.396   0.910   2.727
  172POPC   H2R20418   1.348   0.870   2.819
  172POPC   H2S20419   1.323   0.977   2.678
  172POPC    C320420   1.658   0.589   2.615
  172POPC    HX20421   1.717   0.516   2.555
  172POPC    HY20422   1.583   0.532   2.674
  172POPC   O3120423   1.742   0.667   2.703
  172POPC   C3120424   1.823   0.587   2.776
  172POPC   O3220425   1.825   0.466   2.763
  172POPC   C3220426   1.897   0.667   2.884
  172POPC   H2X20427   1.824   0.737   2.930
  172POPC   H2Y20428   1.977   0.726   2.833
  172POPC   C2320429   1.522   0.989   2.770
  172POPC   H3R20430   1.531   1.079   2.705
  172POPC   H3S20431   1.615   0.929   2.756
  172POPC   C2420432   1.519   1.033   2.918
  172POPC   H4R20433   1.416   1.065   2.947
  172POPC   H4S20434   1.586   1.120   2.930
  172POPC   C2520435   1.567   0.923   3.014
  172POPC   H5R20436   1.659   0.878   2.970
  172POPC   H5S20437   1.491   0.842   3.021
  172POPC   C2620438   1.604   0.973   3.154
  172POPC   H6R20439   1.676   1.057   3.147
  172POPC   H6S20440   1.655   0.890   3.208
  172POPC   C2720441   1.483   1.017   3.239
  172POPC   H7R20442   1.400   0.945   3.221
  172POPC   H7S20443   1.447   1.116   3.206
  172POPC   C2820444   1.511   1.016   3.392
  172POPC   H8R20445   1.536   0.912   3.421
  172POPC   H8S20446   1.416   1.042   3.443
  172POPC   C2920447   1.623   1.107   3.437
  172POPC   H9120448   1.704   1.120   3.364
  172POPC  C21020449   1.633   1.172   3.555
  172POPC  H10120450   1.722   1.235   3.572
  172POPC  C21120451   1.536   1.171   3.671
  172POPC  H11R20452   1.443   1.224   3.641
  172POPC  H11S20453   1.579   1.229   3.755
  172POPC  C21220454   1.493   1.034   3.728
  172POPC  H12R20455   1.438   0.977   3.650
  172POPC  H12S20456   1.422   1.050   3.811
  172POPC  C21320457   1.609   0.946   3.779
  172POPC  H13R20458   1.686   0.938   3.699
  172POPC  H13S20459   1.570   0.843   3.797
  172POPC  C21420460   1.676   0.995   3.909
  172POPC  H14R20461   1.704   1.102   3.899
  172POPC  H14S20462   1.769   0.937   3.923
  172POPC  C21520463   1.588   0.975   4.034
  172POPC  H15R20464   1.546   0.873   4.033
  172POPC  H15S20465   1.503   1.047   4.029
  172POPC  C21620466   1.668   0.997   4.164
  172POPC  H16R20467   1.716   1.097   4.156
  172POPC  H16S20468   1.750   0.923   4.170
  172POPC  C21720469   1.588   0.993   4.297
  172POPC  H17R20470   1.646   1.047   4.374
  172POPC  H17S20471   1.582   0.888   4.334
  172POPC  C21820472   1.446   1.050   4.292
  172POPC  H18R20473   1.401   1.050   4.394
  172POPC  H18S20474   1.381   0.991   4.225
  172POPC  H18T20475   1.448   1.155   4.256
  172POPC   C3320476   1.958   0.577   2.994
  172POPC   H3X20477   2.042   0.519   2.949
  172POPC   H3Y20478   1.883   0.502   3.028
  172POPC   C3420479   2.011   0.652   3.117
  172POPC   H4X20480   1.961   0.751   3.124
  172POPC   H4Y20481   2.120   0.671   3.102
  172POPC   C3520482   1.991   0.579   3.251
  172POPC   H5X20483   2.026   0.474   3.244
  172POPC   H5Y20484   1.881   0.575   3.271
  172POPC   C3620485   2.060   0.649   3.369
  172POPC   H6X20486   2.072   0.756   3.342
  172POPC   H6Y20487   2.162   0.607   3.383
  172POPC   C3720488   1.984   0.648   3.503
  172POPC   H7X20489   1.883   0.692   3.487
  172POPC   H7Y20490   2.038   0.715   3.572
  172POPC   C3820491   1.970   0.511   3.572
  172POPC   H8X20492   2.066   0.456   3.562
  172POPC   H8Y20493   1.892   0.451   3.521
  172POPC   C3920494   1.937   0.522   3.722
  172POPC   H9X20495   2.024   0.568   3.773
  172POPC   H9Y20496   1.924   0.420   3.764
  172POPC  C31020497   1.812   0.606   3.754
  172POPC  H10X20498   1.720   0.554   3.719
  172POPC  H10Y20499   1.818   0.703   3.700
  172POPC  C31120500   1.798   0.640   3.904
  172POPC  H11X20501   1.722   0.720   3.916
  172POPC  H11Y20502   1.895   0.680   3.941
  172POPC  C31220503   1.754   0.523   3.993
  172POPC  H12X20504   1.823   0.437   3.978
  172POPC  H12Y20505   1.652   0.491   3.962
  172POPC  C31320506   1.754   0.561   4.142
  172POPC  H13X20507   1.778   0.669   4.152
  172POPC  H13Y20508   1.838   0.507   4.191
  172POPC  C31420509   1.623   0.532   4.216
  172POPC  H14X20510   1.646   0.524   4.324
  172POPC  H14Y20511   1.579   0.435   4.185
  172POPC  C31520512   1.520   0.644   4.199
  172POPC  H15X20513   1.470   0.636   4.100
  172POPC  H15Y20514   1.576   0.740   4.198
  172POPC  C31620515   1.415   0.651   4.311
  172POPC  H16X20516   1.464   0.671   4.409
  172POPC  H16Y20517   1.359   0.555   4.320
  172POPC  H16Z20518   1.342   0.733   4.291
  173POPC     N20519   6.179   6.528   2.284
  173POPC   C1220520   6.300   6.509   2.374
  173POPC  H12A20521   6.319   6.403   2.385
  173POPC  H12B20522   6.277   6.547   2.472
  173POPC   C1320523   6.130   6.669   2.297
  173POPC  H13A20524   6.051   6.690   2.227
  173POPC  H13B20525   6.094   6.689   2.397
  173POPC  H13C20526   6.213   6.735   2.278
  173POPC   C1420527   6.219   6.506   2.141
  173POPC  H14A20528   6.258   6.407   2.125
  173POPC  H14B20529   6.138   6.524   2.072
  173POPC  H14C20530   6.300   6.574   2.117
  173POPC   C1520531   6.071   6.431   2.323
  173POPC  H15A20532   5.984   6.436   2.259
  173POPC  H15B20533   6.035   6.449   2.423
  173POPC  H15C20534   6.105   6.329   2.319
  173POPC   C1120535   6.433   6.575   2.328
  173POPC  H11A20536   6.473   6.519   2.240
  173POPC  H11B20537   6.506   6.562   2.410
  173POPC     P20538   6.542   6.804   2.280
  173POPC   O1320539   6.514   6.909   2.179
  173POPC   O1420540   6.661   6.721   2.255
  173POPC   O1220541   6.414   6.712   2.293
  173POPC   O1120542   6.551   6.876   2.421
  173POPC    C120543   6.463   6.842   2.529
  173POPC    HA20544   6.493   6.745   2.573
  173POPC    HB20545   6.358   6.833   2.495
  173POPC    C220546   6.465   6.949   2.642
  173POPC    HS20547   6.542   7.024   2.614
  173POPC   O2120548   6.505   6.884   2.765
  173POPC   C2120549   6.465   6.926   2.884
  173POPC   O2220550   6.397   7.023   2.909
  173POPC   C2220551   6.519   6.831   2.993
  173POPC   H2R20552   6.616   6.871   3.028
  173POPC   H2S20553   6.536   6.732   2.946
  173POPC    C320554   6.328   7.024   2.646
  173POPC    HX20555   6.300   7.050   2.541
  173POPC    HY20556   6.338   7.119   2.702
  173POPC   O3120557   6.233   6.937   2.709
  173POPC   C3120558   6.106   6.943   2.685
  173POPC   O3220559   6.051   7.004   2.595
  173POPC   C3220560   6.037   6.847   2.781
  173POPC   H2X20561   6.019   6.757   2.718
  173POPC   H2Y20562   5.938   6.888   2.811
  173POPC   C2320563   6.421   6.814   3.112
  173POPC   H3R20564   6.451   6.726   3.173
  173POPC   H3S20565   6.320   6.792   3.072
  173POPC   C2420566   6.407   6.936   3.205
  173POPC   H4R20567   6.302   6.941   3.243
  173POPC   H4S20568   6.424   7.030   3.148
  173POPC   C2520569   6.500   6.932   3.327
  173POPC   H5R20570   6.586   6.867   3.301
  173POPC   H5S20571   6.449   6.883   3.412
  173POPC   C2620572   6.553   7.070   3.367
  173POPC   H6R20573   6.600   7.116   3.277
  173POPC   H6S20574   6.633   7.059   3.443
  173POPC   C2720575   6.447   7.167   3.421
  173POPC   H7R20576   6.364   7.174   3.348
  173POPC   H7S20577   6.493   7.268   3.428
  173POPC   C2820578   6.396   7.125   3.559
  173POPC   H8R20579   6.482   7.123   3.629
  173POPC   H8S20580   6.357   7.021   3.553
  173POPC   C2920581   6.288   7.216   3.611
  173POPC   H9120582   6.247   7.288   3.538
  173POPC  C21020583   6.235   7.210   3.734
  173POPC  H10120584   6.156   7.281   3.763
  173POPC  C21120585   6.278   7.110   3.837
  173POPC  H11R20586   6.309   7.015   3.788
  173POPC  H11S20587   6.194   7.084   3.905
  173POPC  C21220588   6.394   7.163   3.919
  173POPC  H12R20589   6.356   7.224   4.004
  173POPC  H12S20590   6.459   7.229   3.858
  173POPC  C21320591   6.484   7.050   3.971
  173POPC  H13R20592   6.523   6.993   3.883
  173POPC  H13S20593   6.425   6.980   4.034
  173POPC  C21420594   6.601   7.109   4.048
  173POPC  H14R20595   6.562   7.142   4.147
  173POPC  H14S20596   6.637   7.199   3.993
  173POPC  C21520597   6.719   7.014   4.065
  173POPC  H15R20598   6.810   7.072   4.094
  173POPC  H15S20599   6.740   6.965   3.968
  173POPC  C21620600   6.691   6.909   4.173
  173POPC  H16R20601   6.741   6.814   4.146
  173POPC  H16S20602   6.581   6.891   4.176
  173POPC  C21720603   6.740   6.953   4.311
  173POPC  H17R20604   6.679   6.905   4.390
  173POPC  H17S20605   6.726   7.063   4.319
  173POPC  C21820606   6.886   6.916   4.335
  173POPC  H18R20607   6.949   6.940   4.247
  173POPC  H18S20608   6.894   6.808   4.356
  173POPC  H18T20609   6.926   6.972   4.423
  173POPC   C3320610   6.118   6.804   2.907
  173POPC   H3X20611   6.112   6.884   2.984
  173POPC   H3Y20612   6.226   6.788   2.882
  173POPC   C3420613   6.067   6.671   2.960
  173POPC   H4X20614   6.094   6.592   2.886
  173POPC   H4Y20615   5.957   6.681   2.963
  173POPC   C3520616   6.115   6.618   3.097
  173POPC   H5X20617   6.225   6.605   3.099
  173POPC   H5Y20618   6.071   6.516   3.107
  173POPC   C3620619   6.067   6.700   3.217
  173POPC   H6X20620   5.975   6.756   3.187
  173POPC   H6Y20621   6.143   6.775   3.245
  173POPC   C3720622   6.029   6.614   3.338
  173POPC   H7X20623   6.120   6.560   3.371
  173POPC   H7Y20624   5.952   6.538   3.310
  173POPC   C3820625   5.974   6.703   3.451
  173POPC   H8X20626   5.873   6.740   3.423
  173POPC   H8Y20627   6.041   6.791   3.455
  173POPC   C3920628   5.970   6.641   3.591
  173POPC   H9X20629   5.893   6.560   3.595
  173POPC   H9Y20630   5.936   6.719   3.662
  173POPC  C31020631   6.104   6.586   3.639
  173POPC  H10X20632   6.132   6.497   3.578
  173POPC  H10Y20633   6.094   6.551   3.744
  173POPC  C31120634   6.220   6.685   3.630
  173POPC  H11X20635   6.203   6.767   3.703
  173POPC  H11Y20636   6.228   6.730   3.529
  173POPC  C31220637   6.351   6.613   3.659
  173POPC  H12X20638   6.383   6.552   3.572
  173POPC  H12Y20639   6.330   6.543   3.743
  173POPC  C31320640   6.462   6.711   3.698
  173POPC  H13X20641   6.420   6.789   3.765
  173POPC  H13Y20642   6.500   6.763   3.607
  173POPC  C31420643   6.579   6.643   3.771
  173POPC  H14X20644   6.648   6.722   3.805
  173POPC  H14Y20645   6.633   6.578   3.699
  173POPC  C31520646   6.537   6.558   3.893
  173POPC  H15X20647   6.630   6.528   3.946
  173POPC  H15Y20648   6.490   6.464   3.857
  173POPC  C31620649   6.441   6.629   3.989
  173POPC  H16X20650   6.343   6.651   3.940
  173POPC  H16Y20651   6.484   6.725   4.023
  173POPC  H16Z20652   6.421   6.565   4.078
  174POPC     N20653   4.629   0.103   2.186
  174POPC   C1220654   4.486   0.068   2.145
  174POPC  H12A20655   4.489   0.041   2.041
  174POPC  H12B20656   4.425   0.157   2.156
  174POPC   C1320657   4.697   0.179   2.076
  174POPC  H13A20658   4.642   0.269   2.051
  174POPC  H13B20659   4.796   0.209   2.107
  174POPC  H13C20660   4.708   0.117   1.988
  174POPC   C1420661   4.631   0.187   2.310
  174POPC  H14A20662   4.732   0.207   2.343
  174POPC  H14B20663   4.581   0.282   2.297
  174POPC  H14C20664   4.585   0.135   2.392
  174POPC   C1520665   4.710  -0.021   2.215
  174POPC  H15A20666   4.665  -0.078   2.295
  174POPC  H15B20667   4.810   0.004   2.248
  174POPC  H15C20668   4.718  -0.088   2.131
  174POPC   C1120669   4.408  -0.049   2.214
  174POPC  H11A20670   4.461  -0.145   2.194
  174POPC  H11B20671   4.310  -0.057   2.163
  174POPC     P20672   4.470  -0.095   2.466
  174POPC   O1320673   4.540   0.015   2.534
  174POPC   O1420674   4.550  -0.202   2.403
  174POPC   O1220675   4.382  -0.027   2.353
  174POPC   O1120676   4.362  -0.159   2.561
  174POPC    C120677   4.282  -0.075   2.646
  174POPC    HA20678   4.178  -0.114   2.641
  174POPC    HB20679   4.279   0.031   2.612
  174POPC    C220680   4.323  -0.074   2.797
  174POPC    HS20681   4.408  -0.004   2.809
  174POPC   O2120682   4.360  -0.207   2.837
  174POPC   C2120683   4.428  -0.214   2.951
  174POPC   O2220684   4.452  -0.123   3.028
  174POPC   C2220685   4.471  -0.360   2.972
  174POPC   H2R20686   4.579  -0.365   2.948
  174POPC   H2S20687   4.416  -0.426   2.901
  174POPC    C320688   4.198  -0.021   2.874
  174POPC    HX20689   4.116  -0.096   2.861
  174POPC    HY20690   4.164   0.070   2.820
  174POPC   O3120691   4.211   0.008   3.015
  174POPC   C3120692   4.266   0.128   3.034
  174POPC   O3220693   4.315   0.197   2.948
  174POPC   C3220694   4.238   0.173   3.177
  174POPC   H2X20695   4.150   0.118   3.216
  174POPC   H2Y20696   4.216   0.282   3.174
  174POPC   C2320697   4.447  -0.405   3.117
  174POPC   H3R20698   4.493  -0.332   3.187
  174POPC   H3S20699   4.498  -0.502   3.134
  174POPC   C2420700   4.297  -0.423   3.147
  174POPC   H4R20701   4.259  -0.501   3.079
  174POPC   H4S20702   4.241  -0.329   3.126
  174POPC   C2520703   4.272  -0.467   3.292
  174POPC   H5R20704   4.367  -0.509   3.330
  174POPC   H5S20705   4.197  -0.549   3.293
  174POPC   C2620706   4.222  -0.358   3.388
  174POPC   H6R20707   4.249  -0.391   3.490
  174POPC   H6S20708   4.111  -0.353   3.386
  174POPC   C2720709   4.273  -0.215   3.364
  174POPC   H7R20710   4.211  -0.163   3.288
  174POPC   H7S20711   4.376  -0.220   3.322
  174POPC   C2820712   4.284  -0.135   3.496
  174POPC   H8R20713   4.390  -0.101   3.500
  174POPC   H8S20714   4.271  -0.204   3.581
  174POPC   C2920715   4.192  -0.018   3.513
  174POPC   H9120716   4.099  -0.020   3.453
  174POPC  C21020717   4.218   0.085   3.595
  174POPC  H10120718   4.149   0.170   3.600
  174POPC  C21120719   4.341   0.100   3.681
  174POPC  H11R20720   4.384   0.201   3.665
  174POPC  H11S20721   4.421   0.027   3.656
  174POPC  C21220722   4.311   0.084   3.831
  174POPC  H12R20723   4.241   0.164   3.862
  174POPC  H12S20724   4.406   0.102   3.885
  174POPC  C21320725   4.255  -0.054   3.874
  174POPC  H13R20726   4.329  -0.105   3.938
  174POPC  H13S20727   4.236  -0.118   3.785
  174POPC  C21420728   4.124  -0.035   3.952
  174POPC  H14R20729   4.049   0.012   3.885
  174POPC  H14S20730   4.147   0.036   4.034
  174POPC  C21520731   4.058  -0.156   4.017
  174POPC  H15R20732   4.132  -0.213   4.077
  174POPC  H15S20733   4.018  -0.223   3.937
  174POPC  C21620734   3.945  -0.105   4.108
  174POPC  H16R20735   3.886  -0.028   4.054
  174POPC  H16S20736   3.991  -0.055   4.196
  174POPC  C21720737   3.848  -0.213   4.157
  174POPC  H17R20738   3.787  -0.170   4.240
  174POPC  H17S20739   3.907  -0.297   4.199
  174POPC  C21820740   3.753  -0.266   4.049
  174POPC  H18R20741   3.696  -0.183   4.003
  174POPC  H18S20742   3.681  -0.338   4.093
  174POPC  H18T20743   3.810  -0.318   3.970
  174POPC   C3320744   4.361   0.146   3.264
  174POPC   H3X20745   4.383   0.037   3.264
  174POPC   H3Y20746   4.338   0.176   3.369
  174POPC   C3420747   4.485   0.222   3.219
  174POPC   H4X20748   4.472   0.330   3.241
  174POPC   H4Y20749   4.502   0.211   3.110
  174POPC   C3520750   4.610   0.166   3.288
  174POPC   H5X20751   4.699   0.222   3.253
  174POPC   H5Y20752   4.623   0.061   3.254
  174POPC   C3620753   4.599   0.169   3.441
  174POPC   H6X20754   4.528   0.089   3.470
  174POPC   H6Y20755   4.558   0.266   3.477
  174POPC   C3720756   4.733   0.142   3.509
  174POPC   H7X20757   4.794   0.234   3.524
  174POPC   H7Y20758   4.792   0.079   3.439
  174POPC   C3820759   4.719   0.062   3.639
  174POPC   H8X20760   4.817   0.012   3.654
  174POPC   H8Y20761   4.642  -0.017   3.627
  174POPC   C3920762   4.689   0.141   3.766
  174POPC   H9X20763   4.593   0.196   3.758
  174POPC   H9Y20764   4.770   0.216   3.782
  174POPC  C31020765   4.685   0.041   3.882
  174POPC  H10X20766   4.764  -0.036   3.863
  174POPC  H10Y20767   4.588  -0.013   3.881
  174POPC  C31120768   4.713   0.097   4.022
  174POPC  H11X20769   4.637   0.174   4.047
  174POPC  H11Y20770   4.812   0.148   4.020
  174POPC  C31220771   4.717  -0.018   4.124
  174POPC  H12X20772   4.800  -0.086   4.099
  174POPC  H12Y20773   4.622  -0.075   4.111
  174POPC  C31320774   4.728   0.019   4.273
  174POPC  H13X20775   4.665   0.107   4.294
  174POPC  H13Y20776   4.833   0.045   4.297
  174POPC  C31420777   4.681  -0.099   4.359
  174POPC  H14X20778   4.746  -0.187   4.341
  174POPC  H14Y20779   4.579  -0.128   4.326
  174POPC  C31520780   4.675  -0.071   4.510
  174POPC  H15X20781   4.621   0.024   4.527
  174POPC  H15Y20782   4.779  -0.056   4.548
  174POPC  C31620783   4.607  -0.182   4.589
  174POPC  H16X20784   4.503  -0.198   4.553
  174POPC  H16Y20785   4.603  -0.157   4.697
  174POPC  H16Z20786   4.661  -0.278   4.578
  175POPC     N20787   0.839   6.147   2.411
  175POPC   C1220788   0.813   6.296   2.428
  175POPC  H12A20789   0.859   6.330   2.520
  175POPC  H12B20790   0.707   6.312   2.442
  175POPC   C1320791   0.777   6.073   2.525
  175POPC  H13A20792   0.825   6.096   2.619
  175POPC  H13B20793   0.673   6.100   2.536
  175POPC  H13C20794   0.782   5.967   2.508
  175POPC   C1420795   0.773   6.096   2.288
  175POPC  H14A20796   0.783   5.989   2.277
  175POPC  H14B20797   0.668   6.119   2.289
  175POPC  H14C20798   0.812   6.147   2.201
  175POPC   C1520799   0.985   6.116   2.404
  175POPC  H15A20800   1.036   6.143   2.495
  175POPC  H15B20801   1.030   6.170   2.321
  175POPC  H15C20802   1.000   6.011   2.386
  175POPC   C1120803   0.853   6.394   2.314
  175POPC  H11A20804   0.963   6.388   2.298
  175POPC  H11B20805   0.831   6.498   2.347
  175POPC     P20806   0.629   6.380   2.175
  175POPC   O1320807   0.586   6.258   2.104
  175POPC   O1420808   0.602   6.509   2.109
  175POPC   O1220809   0.786   6.367   2.192
  175POPC   O1120810   0.572   6.373   2.323
  175POPC    C120811   0.466   6.458   2.365
  175POPC    HA20812   0.372   6.432   2.311
  175POPC    HB20813   0.490   6.564   2.342
  175POPC    C220814   0.440   6.454   2.519
  175POPC    HS20815   0.370   6.538   2.537
  175POPC   O2120816   0.566   6.469   2.587
  175POPC   C2120817   0.559   6.545   2.696
  175POPC   O2220818   0.459   6.603   2.734
  175POPC   C2220819   0.692   6.545   2.773
  175POPC   H2R20820   0.673   6.510   2.876
  175POPC   H2S20821   0.728   6.650   2.777
  175POPC    C320822   0.370   6.325   2.571
  175POPC    HX20823   0.443   6.241   2.571
  175POPC    HY20824   0.290   6.298   2.499
  175POPC   O3120825   0.310   6.348   2.701
  175POPC   C3120826   0.385   6.321   2.809
  175POPC   O3220827   0.484   6.250   2.808
  175POPC   C3220828   0.335   6.405   2.928
  175POPC   H2X20829   0.246   6.355   2.971
  175POPC   H2Y20830   0.300   6.501   2.885
  175POPC   C2320831   0.800   6.459   2.706
  175POPC   H3R20832   0.804   6.489   2.599
  175POPC   H3S20833   0.772   6.352   2.713
  175POPC   C2420834   0.942   6.481   2.760
  175POPC   H4R20835   0.977   6.582   2.731
  175POPC   H4S20836   1.006   6.405   2.710
  175POPC   C2520837   0.959   6.465   2.912
  175POPC   H5R20838   0.897   6.538   2.967
  175POPC   H5S20839   1.065   6.488   2.936
  175POPC   C2620840   0.928   6.322   2.957
  175POPC   H6R20841   0.955   6.253   2.874
  175POPC   H6S20842   0.818   6.315   2.973
  175POPC   C2720843   1.005   6.275   3.081
  175POPC   H7R20844   1.112   6.263   3.054
  175POPC   H7S20845   0.967   6.175   3.111
  175POPC   C2820846   0.999   6.370   3.202
  175POPC   H8R20847   1.047   6.467   3.175
  175POPC   H8S20848   1.063   6.326   3.282
  175POPC   C2920849   0.859   6.395   3.253
  175POPC   H9120850   0.804   6.474   3.200
  175POPC  C21020851   0.798   6.328   3.352
  175POPC  H10120852   0.696   6.358   3.380
  175POPC  C21120853   0.855   6.215   3.434
  175POPC  H11R20854   0.902   6.139   3.368
  175POPC  H11S20855   0.772   6.164   3.486
  175POPC  C21220856   0.960   6.256   3.540
  175POPC  H12R20857   0.942   6.361   3.573
  175POPC  H12S20858   1.061   6.256   3.493
  175POPC  C21320859   0.960   6.162   3.662
  175POPC  H13R20860   0.985   6.060   3.625
  175POPC  H13S20861   0.858   6.157   3.705
  175POPC  C21420862   1.061   6.201   3.771
  175POPC  H14R20863   1.127   6.283   3.733
  175POPC  H14S20864   1.125   6.113   3.792
  175POPC  C21520865   1.000   6.247   3.904
  175POPC  H15R20866   0.931   6.169   3.944
  175POPC  H15S20867   0.939   6.339   3.886
  175POPC  C21620868   1.105   6.282   4.011
  175POPC  H16R20869   1.190   6.334   3.962
  175POPC  H16S20870   1.145   6.187   4.054
  175POPC  C21720871   1.054   6.372   4.124
  175POPC  H17R20872   1.037   6.474   4.084
  175POPC  H17S20873   1.135   6.381   4.200
  175POPC  C21820874   0.926   6.324   4.192
  175POPC  H18R20875   0.908   6.384   4.284
  175POPC  H18S20876   0.934   6.217   4.221
  175POPC  H18T20877   0.839   6.335   4.125
  175POPC   C3320878   0.437   6.436   3.042
  175POPC   H3X20879   0.542   6.415   3.012
  175POPC   H3Y20880   0.414   6.369   3.128
  175POPC   C3420881   0.427   6.581   3.095
  175POPC   H4X20882   0.321   6.611   3.085
  175POPC   H4Y20883   0.485   6.649   3.029
  175POPC   C3520884   0.467   6.603   3.244
  175POPC   H5X20885   0.440   6.708   3.268
  175POPC   H5Y20886   0.577   6.593   3.255
  175POPC   C3620887   0.398   6.511   3.346
  175POPC   H6X20888   0.469   6.431   3.376
  175POPC   H6Y20889   0.313   6.462   3.295
  175POPC   C3720890   0.337   6.577   3.473
  175POPC   H7X20891   0.233   6.540   3.483
  175POPC   H7Y20892   0.331   6.687   3.460
  175POPC   C3820893   0.409   6.549   3.606
  175POPC   H8X20894   0.505   6.604   3.605
  175POPC   H8Y20895   0.435   6.441   3.616
  175POPC   C3920896   0.328   6.590   3.731
  175POPC   H9X20897   0.254   6.669   3.704
  175POPC   H9Y20898   0.398   6.634   3.805
  175POPC  C31020899   0.253   6.474   3.799
  175POPC  H10X20900   0.323   6.390   3.819
  175POPC  H10Y20901   0.174   6.437   3.730
  175POPC  C31120902   0.190   6.513   3.934
  175POPC  H11X20903   0.087   6.472   3.938
  175POPC  H11Y20904   0.181   6.624   3.936
  175POPC  C31220905   0.264   6.463   4.059
  175POPC  H12X20906   0.253   6.353   4.064
  175POPC  H12Y20907   0.214   6.504   4.150
  175POPC  C31320908   0.413   6.497   4.065
  175POPC  H13X20909   0.427   6.607   4.062
  175POPC  H13Y20910   0.463   6.458   3.973
  175POPC  C31420911   0.485   6.443   4.189
  175POPC  H14X20912   0.448   6.505   4.273
  175POPC  H14Y20913   0.594   6.461   4.178
  175POPC  C31520914   0.461   6.295   4.225
  175POPC  H15X20915   0.353   6.282   4.249
  175POPC  H15Y20916   0.517   6.273   4.318
  175POPC  C31620917   0.501   6.193   4.119
  175POPC  H16X20918   0.471   6.091   4.149
  175POPC  H16Y20919   0.611   6.194   4.102
  175POPC  H16Z20920   0.450   6.216   4.022
  176POPC     N20921   6.015   7.159   2.282
  176POPC   C1220922   5.903   7.181   2.383
  176POPC  H12A20923   5.920   7.274   2.435
  176POPC  H12B20924   5.909   7.104   2.459
  176POPC   C1320925   6.022   7.276   2.190
  176POPC  H13A20926   6.093   7.260   2.110
  176POPC  H13B20927   5.923   7.295   2.151
  176POPC  H13C20928   6.052   7.364   2.245
  176POPC   C1420929   6.145   7.151   2.355
  176POPC  H14A20930   6.141   7.073   2.430
  176POPC  H14B20931   6.229   7.136   2.289
  176POPC  H14C20932   6.162   7.242   2.410
  176POPC   C1520933   5.991   7.033   2.205
  176POPC  H15A20934   5.903   7.043   2.144
  176POPC  H15B20935   5.974   6.951   2.273
  176POPC  H15C20936   6.076   7.011   2.141
  176POPC   C1120937   5.760   7.188   2.326
  176POPC  H11A20938   5.689   7.182   2.411
  176POPC  H11B20939   5.739   7.098   2.265
  176POPC     P20940   5.696   7.437   2.327
  176POPC   O1320941   5.565   7.403   2.384
  176POPC   O1420942   5.699   7.551   2.233
  176POPC   O1220943   5.741   7.306   2.247
  176POPC   O1120944   5.806   7.451   2.440
  176POPC    C120945   5.917   7.541   2.424
  176POPC    HA20946   5.893   7.630   2.362
  176POPC    HB20947   6.000   7.488   2.372
  176POPC    C220948   5.979   7.596   2.557
  176POPC    HS20949   6.083   7.626   2.536
  176POPC   O2120950   5.977   7.500   2.662
  176POPC   C2120951   6.050   7.393   2.649
  176POPC   O2220952   6.125   7.365   2.557
  176POPC   C2220953   6.019   7.302   2.767
  176POPC   H2R20954   6.062   7.349   2.858
  176POPC   H2S20955   6.069   7.205   2.749
  176POPC    C320956   5.904   7.722   2.611
  176POPC    HX20957   5.889   7.792   2.526
  176POPC    HY20958   5.972   7.774   2.682
  176POPC   O3120959   5.775   7.690   2.669
  176POPC   C3120960   5.776   7.670   2.801
  176POPC   O3220961   5.870   7.691   2.876
  176POPC   C3220962   5.639   7.620   2.846
  176POPC   H2X20963   5.623   7.518   2.805
  176POPC   H2Y20964   5.562   7.687   2.802
  176POPC   C2320965   5.865   7.286   2.781
  176POPC   H3R20966   5.818   7.270   2.682
  176POPC   H3S20967   5.824   7.380   2.822
  176POPC   C2420968   5.823   7.171   2.872
  176POPC   H4R20969   5.839   7.074   2.820
  176POPC   H4S20970   5.714   7.180   2.891
  176POPC   C2520971   5.896   7.169   3.007
  176POPC   H5R20972   5.892   7.269   3.054
  176POPC   H5S20973   6.003   7.144   2.989
  176POPC   C2620974   5.835   7.065   3.101
  176POPC   H6R20975   5.807   6.975   3.042
  176POPC   H6S20976   5.742   7.105   3.145
  176POPC   C2720977   5.931   7.021   3.211
  176POPC   H7R20978   6.016   6.967   3.163
  176POPC   H7S20979   5.877   6.949   3.276
  176POPC   C2820980   5.989   7.135   3.296
  176POPC   H8R20981   5.907   7.196   3.339
  176POPC   H8S20982   6.051   7.203   3.233
  176POPC   C2920983   6.072   7.075   3.406
  176POPC   H9120984   6.178   7.061   3.382
  176POPC  C21020985   6.026   7.035   3.525
  176POPC  H10120986   6.098   6.990   3.594
  176POPC  C21120987   5.884   7.042   3.576
  176POPC  H11R20988   5.833   6.945   3.560
  176POPC  H11S20989   5.825   7.120   3.522
  176POPC  C21220990   5.881   7.074   3.726
  176POPC  H12R20991   5.776   7.089   3.757
  176POPC  H12S20992   5.935   7.170   3.744
  176POPC  C21320993   5.943   6.964   3.813
  176POPC  H13R20994   6.050   6.948   3.786
  176POPC  H13S20995   5.889   6.869   3.793
  176POPC  C21420996   5.937   6.997   3.962
  176POPC  H14R20997   5.831   6.998   3.995
  176POPC  H14S20998   5.980   7.098   3.977
  176POPC  C21520999   6.020   6.903   4.050
  176POPC  H15R21000   6.127   6.906   4.020
  176POPC  H15S21001   5.987   6.797   4.036
  176POPC  C21621002   6.005   6.942   4.197
  176POPC  H16R21003   5.989   6.852   4.259
  176POPC  H16S21004   5.915   7.006   4.209
  176POPC  C21721005   6.127   7.019   4.248
  176POPC  H17R21006   6.151   7.101   4.177
  176POPC  H17S21007   6.215   6.951   4.251
  176POPC  C21821008   6.101   7.077   4.387
  176POPC  H18R21009   6.071   6.996   4.457
  176POPC  H18S21010   6.017   7.150   4.384
  176POPC  H18T21011   6.192   7.128   4.427
  176POPC   C3321012   5.623   7.618   3.000
  176POPC   H3X21013   5.514   7.614   3.021
  176POPC   H3Y21014   5.662   7.711   3.046
  176POPC   C3421015   5.686   7.495   3.067
  176POPC   H4X21016   5.796   7.493   3.049
  176POPC   H4Y21017   5.643   7.405   3.017
  176POPC   C3521018   5.660   7.486   3.218
  176POPC   H5X21019   5.565   7.539   3.242
  176POPC   H5Y21020   5.739   7.541   3.273
  176POPC   C3621021   5.650   7.341   3.268
  176POPC   H6X21022   5.754   7.309   3.293
  176POPC   H6Y21023   5.615   7.276   3.185
  176POPC   C3721024   5.558   7.313   3.388
  176POPC   H7X21025   5.583   7.214   3.430
  176POPC   H7Y21026   5.453   7.308   3.351
  176POPC   C3821027   5.562   7.417   3.499
  176POPC   H8X21028   5.494   7.386   3.581
  176POPC   H8Y21029   5.522   7.513   3.460
  176POPC   C3921030   5.701   7.444   3.559
  176POPC   H9X21031   5.774   7.473   3.480
  176POPC   H9Y21032   5.740   7.352   3.610
  176POPC  C31021033   5.686   7.560   3.657
  176POPC  H10X21034   5.614   7.531   3.737
  176POPC  H10Y21035   5.642   7.642   3.598
  176POPC  C31121036   5.811   7.619   3.722
  176POPC  H11X21037   5.777   7.699   3.791
  176POPC  H11Y21038   5.873   7.668   3.644
  176POPC  C31221039   5.900   7.522   3.801
  176POPC  H12X21040   5.953   7.589   3.872
  176POPC  H12Y21041   5.972   7.474   3.732
  176POPC  C31321042   5.834   7.413   3.884
  176POPC  H13X21043   5.800   7.334   3.815
  176POPC  H13Y21044   5.744   7.455   3.934
  176POPC  C31421045   5.930   7.350   3.987
  176POPC  H14X21046   6.009   7.296   3.931
  176POPC  H14Y21047   5.873   7.276   4.048
  176POPC  C31521048   6.002   7.446   4.083
  176POPC  H15X21049   5.929   7.508   4.140
  176POPC  H15Y21050   6.064   7.517   4.024
  176POPC  C31621051   6.093   7.376   4.183
  176POPC  H16X21052   6.032   7.305   4.244
  176POPC  H16Y21053   6.141   7.449   4.251
  176POPC  H16Z21054   6.173   7.319   4.131
  177POPC     N21055   7.528   2.122   2.212
  177POPC   C1221056   7.591   1.989   2.173
  177POPC  H12A21057   7.652   2.003   2.085
  177POPC  H12B21058   7.512   1.920   2.149
  177POPC   C1321059   7.443   2.107   2.334
  177POPC  H13A21060   7.361   2.038   2.321
  177POPC  H13B21061   7.502   2.069   2.416
  177POPC  H13C21062   7.400   2.201   2.365
  177POPC   C1421063   7.632   2.225   2.245
  177POPC  H14A21064   7.585   2.319   2.268
  177POPC  H14B21065   7.688   2.196   2.333
  177POPC  H14C21066   7.701   2.242   2.163
  177POPC   C1521067   7.441   2.175   2.102
  177POPC  H15A21068   7.409   2.275   2.127
  177POPC  H15B21069   7.353   2.114   2.090
  177POPC  H15C21070   7.494   2.182   2.008
  177POPC   C1121071   7.675   1.917   2.280
  177POPC  H11A21072   7.739   1.991   2.333
  177POPC  H11B21073   7.742   1.843   2.231
  177POPC     P21074   7.633   1.819   2.515
  177POPC   O1321075   7.659   1.949   2.579
  177POPC   O1421076   7.742   1.720   2.509
  177POPC   O1221077   7.586   1.848   2.366
  177POPC   O1121078   7.499   1.756   2.574
  177POPC    C121079   7.374   1.824   2.549
  177POPC    HA21080   7.317   1.773   2.469
  177POPC    HB21081   7.392   1.928   2.516
  177POPC    C221082   7.282   1.834   2.676
  177POPC    HS21083   7.205   1.753   2.673
  177POPC   O2121084   7.217   1.960   2.694
  177POPC   C2121085   7.186   2.042   2.598
  177POPC   O2221086   7.179   2.018   2.478
  177POPC   C2221087   7.181   2.183   2.659
  177POPC   H2R21088   7.078   2.202   2.695
  177POPC   H2S21089   7.203   2.253   2.576
  177POPC    C321090   7.368   1.815   2.803
  177POPC    HX21091   7.458   1.878   2.787
  177POPC    HY21092   7.405   1.710   2.809
  177POPC   O3121093   7.304   1.857   2.925
  177POPC   C3121094   7.200   1.784   2.962
  177POPC   O3221095   7.173   1.672   2.923
  177POPC   C3221096   7.119   1.858   3.068
  177POPC   H2X21097   7.151   1.815   3.166
  177POPC   H2Y21098   7.012   1.830   3.053
  177POPC   C2321099   7.285   2.206   2.772
  177POPC   H3R21100   7.263   2.138   2.857
  177POPC   H3S21101   7.275   2.310   2.808
  177POPC   C2421102   7.429   2.182   2.725
  177POPC   H4R21103   7.450   2.253   2.642
  177POPC   H4S21104   7.441   2.079   2.684
  177POPC   C2521105   7.538   2.201   2.831
  177POPC   H5R21106   7.536   2.306   2.867
  177POPC   H5S21107   7.634   2.183   2.779
  177POPC   C2621108   7.539   2.107   2.953
  177POPC   H6R21109   7.537   2.000   2.920
  177POPC   H6S21110   7.450   2.125   3.016
  177POPC   C2721111   7.668   2.127   3.034
  177POPC   H7R21112   7.671   2.236   3.057
  177POPC   H7S21113   7.756   2.106   2.970
  177POPC   C2821114   7.676   2.046   3.165
  177POPC   H8R21115   7.579   2.055   3.218
  177POPC   H8S21116   7.751   2.094   3.230
  177POPC   C2921117   7.716   1.902   3.142
  177POPC   H9121118   7.818   1.889   3.102
  177POPC  C21021119   7.642   1.792   3.164
  177POPC  H10121120   7.685   1.693   3.144
  177POPC  C21121121   7.501   1.790   3.217
  177POPC  H11R21122   7.442   1.707   3.170
  177POPC  H11S21123   7.448   1.883   3.187
  177POPC  C21221124   7.493   1.778   3.370
  177POPC  H12R21125   7.396   1.822   3.401
  177POPC  H12S21126   7.574   1.838   3.418
  177POPC  C21321127   7.497   1.634   3.425
  177POPC  H13R21128   7.584   1.579   3.381
  177POPC  H13S21129   7.405   1.583   3.392
  177POPC  C21421130   7.506   1.627   3.579
  177POPC  H14R21131   7.610   1.651   3.611
  177POPC  H14S21132   7.484   1.523   3.612
  177POPC  C21521133   7.410   1.724   3.650
  177POPC  H15R21134   7.308   1.709   3.609
  177POPC  H15S21135   7.442   1.827   3.627
  177POPC  C21621136   7.405   1.711   3.803
  177POPC  H16R21137   7.507   1.726   3.845
  177POPC  H16S21138   7.372   1.609   3.831
  177POPC  C21721139   7.309   1.815   3.863
  177POPC  H17R21140   7.210   1.804   3.813
  177POPC  H17S21141   7.346   1.917   3.838
  177POPC  C21821142   7.289   1.805   4.014
  177POPC  H18R21143   7.253   1.704   4.042
  177POPC  H18S21144   7.214   1.879   4.049
  177POPC  H18T21145   7.385   1.824   4.068
  177POPC   C3321146   7.136   2.012   3.064
  177POPC   H3X21147   7.071   2.054   2.984
  177POPC   H3Y21148   7.241   2.039   3.039
  177POPC   C3421149   7.110   2.083   3.197
  177POPC   H4X21150   7.006   2.063   3.231
  177POPC   H4Y21151   7.118   2.193   3.181
  177POPC   C3521152   7.212   2.042   3.303
  177POPC   H5X21153   7.313   2.078   3.272
  177POPC   H5Y21154   7.218   1.931   3.312
  177POPC   C3621155   7.176   2.096   3.441
  177POPC   H6X21156   7.073   2.064   3.467
  177POPC   H6Y21157   7.178   2.206   3.436
  177POPC   C3721158   7.272   2.047   3.550
  177POPC   H7X21159   7.274   1.936   3.551
  177POPC   H7Y21160   7.234   2.080   3.649
  177POPC   C3821161   7.413   2.105   3.529
  177POPC   H8X21162   7.403   2.197   3.468
  177POPC   H8Y21163   7.476   2.035   3.470
  177POPC   C3921164   7.481   2.142   3.660
  177POPC   H9X21165   7.504   2.051   3.719
  177POPC   H9Y21166   7.409   2.201   3.721
  177POPC  C31021167   7.606   2.229   3.637
  177POPC  H10X21168   7.625   2.290   3.727
  177POPC  H10Y21169   7.584   2.301   3.555
  177POPC  C31121170   7.732   2.148   3.602
  177POPC  H11X21171   7.816   2.219   3.588
  177POPC  H11Y21172   7.716   2.095   3.506
  177POPC  C31221173   7.772   2.045   3.709
  177POPC  H12X21174   7.869   1.999   3.681
  177POPC  H12Y21175   7.696   1.963   3.709
  177POPC  C31321176   7.783   2.103   3.851
  177POPC  H13X21177   7.691   2.160   3.878
  177POPC  H13Y21178   7.869   2.174   3.853
  177POPC  C31421179   7.802   1.996   3.959
  177POPC  H14X21180   7.843   2.042   4.052
  177POPC  H14Y21181   7.877   1.923   3.922
  177POPC  C31521182   7.672   1.923   3.995
  177POPC  H15X21183   7.612   1.908   3.902
  177POPC  H15Y21184   7.611   1.987   4.062
  177POPC  C31621185   7.694   1.786   4.061
  177POPC  H16X21186   7.597   1.741   4.090
  177POPC  H16Y21187   7.758   1.796   4.151
  177POPC  H16Z21188   7.744   1.717   3.990
  178POPC     N21189   6.136   0.512   2.174
  178POPC   C1221190   6.110   0.481   2.321
  178POPC  H12A21191   6.022   0.535   2.353
  178POPC  H12B21192   6.193   0.516   2.381
  178POPC   C1321193   6.034   0.439   2.095
  178POPC  H13A21194   5.935   0.475   2.119
  178POPC  H13B21195   6.049   0.453   1.989
  178POPC  H13C21196   6.038   0.333   2.118
  178POPC   C1421197   6.124   0.657   2.140
  178POPC  H14A21198   6.136   0.671   2.034
  178POPC  H14B21199   6.026   0.694   2.168
  178POPC  H14C21200   6.202   0.716   2.186
  178POPC   C1521201   6.274   0.465   2.139
  178POPC  H15A21202   6.291   0.470   2.033
  178POPC  H15B21203   6.284   0.363   2.174
  178POPC  H15C21204   6.348   0.524   2.190
  178POPC   C1121205   6.091   0.332   2.358
  178POPC  H11A21206   5.995   0.293   2.317
  178POPC  H11B21207   6.082   0.328   2.469
  178POPC     P21208   6.244   0.120   2.380
  178POPC   O1321209   6.199   0.009   2.292
  178POPC   O1421210   6.195   0.123   2.519
  178POPC   O1221211   6.199   0.253   2.308
  178POPC   O1121212   6.401   0.129   2.375
  178POPC    C121213   6.476   0.251   2.379
  178POPC    HA21214   6.412   0.342   2.373
  178POPC    HB21215   6.543   0.251   2.290
  178POPC    C221216   6.569   0.265   2.503
  178POPC    HS21217   6.673   0.272   2.465
  178POPC   O2121218   6.551   0.155   2.592
  178POPC   C2121219   6.649   0.071   2.609
  178POPC   O2221220   6.752   0.066   2.544
  178POPC   C2221221   6.620  -0.008   2.738
  178POPC   H2R21222   6.717  -0.016   2.791
  178POPC   H2S21223   6.587  -0.110   2.710
  178POPC    C321224   6.545   0.396   2.584
  178POPC    HX21225   6.526   0.480   2.514
  178POPC    HY21226   6.640   0.421   2.636
  178POPC   O3121227   6.444   0.381   2.686
  178POPC   C3121228   6.319   0.411   2.655
  178POPC   O3221229   6.282   0.467   2.553
  178POPC   C3221230   6.229   0.376   2.774
  178POPC   H2X21231   6.280   0.411   2.866
  178POPC   H2Y21232   6.221   0.265   2.775
  178POPC   C2321233   6.514   0.062   2.830
  178POPC   H3R21234   6.517   0.172   2.820
  178POPC   H3S21235   6.538   0.044   2.937
  178POPC   C2421236   6.371   0.011   2.807
  178POPC   H4R21237   6.370  -0.100   2.800
  178POPC   H4S21238   6.338   0.051   2.709
  178POPC   C2521239   6.271   0.055   2.916
  178POPC   H5R21240   6.169   0.052   2.872
  178POPC   H5S21241   6.293   0.160   2.946
  178POPC   C2621242   6.272  -0.033   3.041
  178POPC   H6R21243   6.370  -0.020   3.092
  178POPC   H6S21244   6.261  -0.139   3.009
  178POPC   C2721245   6.163   0.000   3.143
  178POPC   H7R21246   6.070   0.026   3.088
  178POPC   H7S21247   6.196   0.090   3.200
  178POPC   C2821248   6.130  -0.114   3.242
  178POPC   H8R21249   6.076  -0.193   3.184
  178POPC   H8S21250   6.058  -0.076   3.318
  178POPC   C2921251   6.253  -0.173   3.304
  178POPC   H9121252   6.323  -0.215   3.230
  178POPC  C21021253   6.286  -0.185   3.435
  178POPC  H10121254   6.382  -0.232   3.461
  178POPC  C21121255   6.204  -0.142   3.553
  178POPC  H11R21256   6.141  -0.227   3.584
  178POPC  H11S21257   6.133  -0.060   3.525
  178POPC  C21221258   6.284  -0.096   3.677
  178POPC  H12R21259   6.332   0.001   3.653
  178POPC  H12S21260   6.362  -0.170   3.702
  178POPC  C21321261   6.188  -0.084   3.796
  178POPC  H13R21262   6.165  -0.187   3.832
  178POPC  H13S21263   6.097  -0.042   3.749
  178POPC  C21421264   6.214   0.009   3.915
  178POPC  H14R21265   6.116   0.030   3.962
  178POPC  H14S21266   6.253   0.107   3.882
  178POPC  C21521267   6.303  -0.047   4.026
  178POPC  H15R21268   6.400  -0.080   3.982
  178POPC  H15S21269   6.259  -0.137   4.073
  178POPC  C21621270   6.330   0.058   4.133
  178POPC  H16R21271   6.233   0.081   4.183
  178POPC  H16S21272   6.366   0.152   4.085
  178POPC  C21721273   6.432   0.010   4.235
  178POPC  H17R21274   6.528  -0.005   4.181
  178POPC  H17S21275   6.399  -0.088   4.277
  178POPC  C21821276   6.463   0.106   4.348
  178POPC  H18R21277   6.499   0.204   4.308
  178POPC  H18S21278   6.539   0.064   4.417
  178POPC  H18T21279   6.370   0.124   4.405
  178POPC   C3321280   6.086   0.434   2.765
  178POPC   H3X21281   6.022   0.365   2.707
  178POPC   H3Y21282   6.088   0.532   2.712
  178POPC   C3421283   6.021   0.462   2.902
  178POPC   H4X21284   5.917   0.496   2.883
  178POPC   H4Y21285   6.076   0.546   2.950
  178POPC   C3521286   6.014   0.345   3.001
  178POPC   H5X21287   6.116   0.308   3.023
  178POPC   H5Y21288   5.956   0.262   2.956
  178POPC   C3621289   5.947   0.388   3.134
  178POPC   H6X21290   5.844   0.425   3.115
  178POPC   H6Y21291   6.005   0.473   3.176
  178POPC   C3721292   5.940   0.276   3.238
  178POPC   H7X21293   6.014   0.199   3.208
  178POPC   H7Y21294   5.840   0.227   3.237
  178POPC   C3821295   5.977   0.321   3.380
  178POPC   H8X21296   5.896   0.382   3.424
  178POPC   H8Y21297   6.068   0.384   3.373
  178POPC   C3921298   6.009   0.201   3.471
  178POPC   H9X21299   6.076   0.131   3.416
  178POPC   H9Y21300   5.915   0.147   3.494
  178POPC  C31021301   6.080   0.239   3.602
  178POPC  H10X21302   6.085   0.149   3.667
  178POPC  H10Y21303   6.022   0.317   3.656
  178POPC  C31121304   6.224   0.289   3.580
  178POPC  H11X21305   6.219   0.391   3.536
  178POPC  H11Y21306   6.277   0.223   3.508
  178POPC  C31221307   6.305   0.296   3.709
  178POPC  H12X21308   6.342   0.194   3.732
  178POPC  H12Y21309   6.239   0.330   3.792
  178POPC  C31321310   6.429   0.386   3.703
  178POPC  H13X21311   6.400   0.491   3.681
  178POPC  H13Y21312   6.494   0.350   3.620
  178POPC  C31421313   6.507   0.379   3.835
  178POPC  H14X21314   6.612   0.410   3.816
  178POPC  H14Y21315   6.508   0.274   3.871
  178POPC  C31521316   6.451   0.467   3.947
  178POPC  H15X21317   6.343   0.449   3.959
  178POPC  H15Y21318   6.465   0.573   3.917
  178POPC  C31621319   6.523   0.440   4.079
  178POPC  H16X21320   6.491   0.511   4.158
  178POPC  H16Y21321   6.632   0.450   4.066
  178POPC  H16Z21322   6.501   0.337   4.114
  179POPC     N21323   7.063   0.258   2.195
  179POPC   C1221324   6.981   0.247   2.323
  179POPC  H12A21325   7.047   0.219   2.403
  179POPC  H12B21326   6.905   0.171   2.315
  179POPC   C1321327   7.194   0.322   2.234
  179POPC  H13A21328   7.243   0.266   2.311
  179POPC  H13B21329   7.261   0.335   2.151
  179POPC  H13C21330   7.171   0.418   2.278
  179POPC   C1421331   7.086   0.125   2.133
  179POPC  H14A21332   7.146   0.134   2.043
  179POPC  H14B21333   7.137   0.059   2.202
  179POPC  H14C21334   6.992   0.080   2.105
  179POPC   C1521335   6.994   0.351   2.100
  179POPC  H15A21336   6.899   0.311   2.067
  179POPC  H15B21337   7.056   0.377   2.016
  179POPC  H15C21338   6.973   0.442   2.155
  179POPC   C1121339   6.913   0.378   2.370
  179POPC  H11A21340   6.877   0.359   2.473
  179POPC  H11B21341   6.824   0.400   2.308
  179POPC     P21342   6.972   0.614   2.451
  179POPC   O1321343   6.827   0.608   2.479
  179POPC   O1421344   7.022   0.731   2.375
  179POPC   O1221345   7.005   0.487   2.365
  179POPC   O1121346   7.053   0.588   2.584
  179POPC    C121347   7.186   0.630   2.612
  179POPC    HA21348   7.179   0.708   2.692
  179POPC    HB21349   7.237   0.677   2.525
  179POPC    C221350   7.279   0.517   2.670
  179POPC    HS21351   7.332   0.470   2.585
  179POPC   O2121352   7.202   0.420   2.742
  179POPC   C2121353   7.138   0.330   2.670
  179POPC   O2221354   7.159   0.303   2.553
  179POPC   C2221355   7.039   0.255   2.759
  179POPC   H2R21356   7.071   0.271   2.865
  179POPC   H2S21357   7.046   0.146   2.737
  179POPC    C321358   7.389   0.573   2.767
  179POPC    HX21359   7.442   0.656   2.717
  179POPC    HY21360   7.461   0.491   2.785
  179POPC   O3121361   7.331   0.617   2.893
  179POPC   C3121362   7.419   0.649   2.987
  179POPC   O3221363   7.540   0.657   2.972
  179POPC   C3221364   7.346   0.683   3.117
  179POPC   H2X21365   7.240   0.650   3.109
  179POPC   H2Y21366   7.348   0.793   3.126
  179POPC   C2321367   6.894   0.304   2.740
  179POPC   H3R21368   6.850   0.252   2.653
  179POPC   H3S21369   6.893   0.412   2.714
  179POPC   C2421370   6.804   0.284   2.863
  179POPC   H4R21371   6.793   0.176   2.885
  179POPC   H4S21372   6.703   0.324   2.837
  179POPC   C2521373   6.852   0.356   2.989
  179POPC   H5R21374   6.933   0.297   3.037
  179POPC   H5S21375   6.768   0.361   3.061
  179POPC   C2621376   6.906   0.498   2.962
  179POPC   H6R21377   6.826   0.559   2.916
  179POPC   H6S21378   6.990   0.494   2.890
  179POPC   C2721379   6.960   0.566   3.087
  179POPC   H7R21380   7.006   0.662   3.054
  179POPC   H7S21381   7.040   0.504   3.132
  179POPC   C2821382   6.849   0.593   3.190
  179POPC   H8R21383   6.813   0.496   3.231
  179POPC   H8S21384   6.764   0.641   3.138
  179POPC   C2921385   6.904   0.683   3.295
  179POPC   H9121386   6.962   0.768   3.255
  179POPC  C21021387   6.888   0.671   3.427
  179POPC  H10121388   6.935   0.745   3.495
  179POPC  C21121389   6.811   0.564   3.498
  179POPC  H11R21390   6.739   0.510   3.432
  179POPC  H11S21391   6.751   0.608   3.580
  179POPC  C21221392   6.910   0.465   3.556
  179POPC  H12R21393   6.999   0.517   3.598
  179POPC  H12S21394   6.946   0.397   3.476
  179POPC  C21321395   6.847   0.386   3.669
  179POPC  H13R21396   6.764   0.323   3.630
  179POPC  H13S21397   6.805   0.456   3.744
  179POPC  C21421398   6.956   0.302   3.731
  179POPC  H14R21399   7.031   0.370   3.777
  179POPC  H14S21400   7.005   0.246   3.649
  179POPC  C21521401   6.909   0.203   3.837
  179POPC  H15R21402   6.998   0.147   3.874
  179POPC  H15S21403   6.839   0.130   3.792
  179POPC  C21621404   6.841   0.272   3.953
  179POPC  H16R21405   6.731   0.268   3.940
  179POPC  H16S21406   6.870   0.379   3.957
  179POPC  C21721407   6.879   0.208   4.085
  179POPC  H17R21408   6.989   0.217   4.098
  179POPC  H17S21409   6.856   0.099   4.084
  179POPC  C21821410   6.806   0.274   4.200
  179POPC  H18R21411   6.847   0.238   4.296
  179POPC  H18S21412   6.698   0.251   4.196
  179POPC  H18T21413   6.819   0.385   4.196
  179POPC   C3321414   7.408   0.626   3.247
  179POPC   H3X21415   7.364   0.686   3.330
  179POPC   H3Y21416   7.518   0.642   3.249
  179POPC   C3421417   7.370   0.481   3.276
  179POPC   H4X21418   7.458   0.414   3.264
  179POPC   H4Y21419   7.292   0.450   3.203
  179POPC   C3521420   7.309   0.463   3.416
  179POPC   H5X21421   7.228   0.538   3.428
  179POPC   H5Y21422   7.385   0.483   3.495
  179POPC   C3621423   7.248   0.324   3.434
  179POPC   H6X21424   7.206   0.291   3.337
  179POPC   H6Y21425   7.160   0.331   3.502
  179POPC   C3721426   7.345   0.217   3.488
  179POPC   H7X21427   7.435   0.211   3.422
  179POPC   H7Y21428   7.292   0.120   3.480
  179POPC   C3821429   7.390   0.235   3.634
  179POPC   H8X21430   7.467   0.315   3.639
  179POPC   H8Y21431   7.435   0.141   3.671
  179POPC   C3921432   7.275   0.278   3.726
  179POPC   H9X21433   7.192   0.207   3.707
  179POPC   H9Y21434   7.239   0.378   3.692
  179POPC  C31021435   7.300   0.280   3.877
  179POPC  H10X21436   7.383   0.210   3.902
  179POPC  H10Y21437   7.209   0.243   3.929
  179POPC  C31121438   7.330   0.420   3.930
  179POPC  H11X21439   7.420   0.459   3.877
  179POPC  H11Y21440   7.355   0.411   4.038
  179POPC  C31221441   7.221   0.526   3.910
  179POPC  H12X21442   7.132   0.501   3.971
  179POPC  H12Y21443   7.188   0.532   3.805
  179POPC  C31321444   7.272   0.666   3.947
  179POPC  H13X21445   7.186   0.736   3.939
  179POPC  H13Y21446   7.349   0.698   3.874
  179POPC  C31421447   7.333   0.669   4.088
  179POPC  H14X21448   7.428   0.610   4.090
  179POPC  H14Y21449   7.262   0.623   4.159
  179POPC  C31521450   7.364   0.810   4.138
  179POPC  H15X21451   7.442   0.856   4.073
  179POPC  H15Y21452   7.407   0.799   4.240
  179POPC  C31621453   7.242   0.899   4.143
  179POPC  H16X21454   7.264   0.996   4.192
  179POPC  H16Y21455   7.159   0.849   4.199
  179POPC  H16Z21456   7.208   0.921   4.040
  180POPC     N21457   0.822   0.059   2.196
  180POPC   C1221458   0.815   0.066   2.349
  180POPC  H12A21459   0.858   0.158   2.384
  180POPC  H12B21460   0.874  -0.014   2.392
  180POPC   C1321461   0.702   0.130   2.140
  180POPC  H13A21462   0.699   0.234   2.168
  180POPC  H13B21463   0.697   0.121   2.032
  180POPC  H13C21464   0.614   0.082   2.181
  180POPC   C1421465   0.948   0.119   2.142
  180POPC  H14A21466   0.947   0.115   2.034
  180POPC  H14B21467   0.957   0.223   2.169
  180POPC  H14C21468   1.035   0.064   2.176
  180POPC   C1521469   0.812  -0.082   2.146
  180POPC  H15A21470   0.810  -0.088   2.038
  180POPC  H15B21471   0.721  -0.127   2.181
  180POPC  H15C21472   0.891  -0.145   2.184
  180POPC   C1121473   0.676   0.055   2.417
  180POPC  H11A21474   0.618   0.147   2.398
  180POPC  H11B21475   0.689   0.050   2.528
  180POPC     P21476   0.638  -0.206   2.410
  180POPC   O1321477   0.649  -0.280   2.283
  180POPC   O1421478   0.547  -0.258   2.514
  180POPC   O1221479   0.601  -0.057   2.371
  180POPC   O1121480   0.784  -0.190   2.473
  180POPC    C121481   0.899  -0.254   2.415
  180POPC    HA21482   0.965  -0.178   2.368
  180POPC    HB21483   0.872  -0.327   2.335
  180POPC    C221484   0.984  -0.335   2.519
  180POPC    HS21485   1.033  -0.417   2.463
  180POPC   O2121486   0.903  -0.389   2.624
  180POPC   C2121487   0.807  -0.469   2.581
  180POPC   O2221488   0.804  -0.521   2.471
  180POPC   C2221489   0.710  -0.500   2.694
  180POPC   H2R21490   0.735  -0.604   2.723
  180POPC   H2S21491   0.608  -0.498   2.650
  180POPC    C321492   1.094  -0.249   2.586
  180POPC    HX21493   1.143  -0.182   2.512
  180POPC    HY21494   1.171  -0.319   2.624
  180POPC   O3121495   1.044  -0.177   2.700
  180POPC   C3121496   0.980  -0.064   2.674
  180POPC   O3221497   1.001   0.006   2.575
  180POPC   C3221498   0.880  -0.037   2.786
  180POPC   H2X21499   0.905  -0.101   2.873
  180POPC   H2Y21500   0.779  -0.067   2.750
  180POPC   C2321501   0.714  -0.412   2.821
  180POPC   H3R21502   0.814  -0.369   2.842
  180POPC   H3S21503   0.687  -0.476   2.908
  180POPC   C2421504   0.608  -0.301   2.816
  180POPC   H4R21505   0.510  -0.343   2.782
  180POPC   H4S21506   0.639  -0.227   2.740
  180POPC   C2521507   0.586  -0.230   2.950
  180POPC   H5R21508   0.538  -0.132   2.929
  180POPC   H5S21509   0.684  -0.210   2.999
  180POPC   C2621510   0.493  -0.307   3.047
  180POPC   H6R21511   0.542  -0.401   3.079
  180POPC   H6S21512   0.400  -0.334   2.992
  180POPC   C2721513   0.455  -0.220   3.168
  180POPC   H7R21514   0.412  -0.126   3.129
  180POPC   H7S21515   0.547  -0.193   3.226
  180POPC   C2821516   0.351  -0.285   3.261
  180POPC   H8R21517   0.266  -0.320   3.198
  180POPC   H8S21518   0.310  -0.205   3.326
  180POPC   C2921519   0.405  -0.399   3.342
  180POPC   H9121520   0.444  -0.482   3.280
  180POPC  C21021521   0.409  -0.411   3.476
  180POPC  H10121522   0.451  -0.502   3.520
  180POPC  C21121523   0.360  -0.310   3.576
  180POPC  H11R21524   0.255  -0.334   3.606
  180POPC  H11S21525   0.361  -0.207   3.533
  180POPC  C21221526   0.447  -0.308   3.703
  180POPC  H12R21527   0.551  -0.283   3.674
  180POPC  H12S21528   0.448  -0.409   3.749
  180POPC  C21321529   0.400  -0.207   3.808
  180POPC  H13R21530   0.307  -0.245   3.855
  180POPC  H13S21531   0.377  -0.110   3.759
  180POPC  C21421532   0.505  -0.180   3.918
  180POPC  H14R21533   0.458  -0.116   3.996
  180POPC  H14S21534   0.588  -0.120   3.875
  180POPC  C21521535   0.563  -0.307   3.981
  180POPC  H15R21536   0.604  -0.373   3.901
  180POPC  H15S21537   0.481  -0.364   4.030
  180POPC  C21621538   0.676  -0.281   4.081
  180POPC  H16R21539   0.645  -0.206   4.157
  180POPC  H16S21540   0.761  -0.235   4.026
  180POPC  C21721541   0.722  -0.410   4.149
  180POPC  H17R21542   0.829  -0.427   4.124
  180POPC  H17S21543   0.665  -0.494   4.105
  180POPC  C21821544   0.704  -0.419   4.300
  180POPC  H18R21545   0.754  -0.333   4.350
  180POPC  H18S21546   0.747  -0.513   4.340
  180POPC  H18T21547   0.597  -0.415   4.329
  180POPC   C3321548   0.878   0.111   2.828
  180POPC   H3X21549   0.798   0.165   2.773
  180POPC   H3Y21550   0.975   0.159   2.802
  180POPC   C3421551   0.860   0.132   2.978
  180POPC   H4X21552   0.880   0.240   2.998
  180POPC   H4Y21553   0.933   0.073   3.036
  180POPC   C3521554   0.720   0.102   3.034
  180POPC   H5X21555   0.719  -0.001   3.076
  180POPC   H5Y21556   0.644   0.105   2.953
  180POPC   C3621557   0.682   0.204   3.142
  180POPC   H6X21558   0.633   0.290   3.092
  180POPC   H6Y21559   0.774   0.243   3.191
  180POPC   C3721560   0.591   0.147   3.251
  180POPC   H7X21561   0.516   0.079   3.206
  180POPC   H7Y21562   0.536   0.231   3.298
  180POPC   C3821563   0.673   0.076   3.359
  180POPC   H8X21564   0.748   0.148   3.399
  180POPC   H8Y21565   0.729  -0.009   3.314
  180POPC   C3921566   0.588   0.025   3.475
  180POPC   H9X21567   0.526  -0.060   3.441
  180POPC   H9Y21568   0.518   0.106   3.507
  180POPC  C31021569   0.672  -0.016   3.596
  180POPC  H10X21570   0.602  -0.044   3.677
  180POPC  H10Y21571   0.732   0.070   3.632
  180POPC  C31121572   0.765  -0.135   3.568
  180POPC  H11X21573   0.846  -0.106   3.497
  180POPC  H11Y21574   0.705  -0.215   3.520
  180POPC  C31221575   0.828  -0.190   3.697
  180POPC  H12X21576   0.747  -0.203   3.772
  180POPC  H12Y21577   0.901  -0.118   3.739
  180POPC  C31321578   0.893  -0.328   3.678
  180POPC  H13X21579   0.990  -0.317   3.625
  180POPC  H13Y21580   0.826  -0.390   3.614
  180POPC  C31421581   0.911  -0.401   3.811
  180POPC  H14X21582   0.944  -0.505   3.790
  180POPC  H14Y21583   0.814  -0.410   3.865
  180POPC  C31521584   1.017  -0.340   3.903
  180POPC  H15X21585   0.970  -0.258   3.961
  180POPC  H15Y21586   1.097  -0.296   3.841
  180POPC  C31621587   1.078  -0.444   3.998
  180POPC  H16X21588   1.130  -0.394   4.082
  180POPC  H16Y21589   1.150  -0.508   3.943
  180POPC  H16Z21590   0.999  -0.511   4.040
  181POPI   C1221591   5.009   3.797   6.568
  181POPI    H221592   4.993   3.703   6.509
  181POPI    O221593   4.911   3.891   6.527
  181POPI   HO221594   4.940   3.919   6.440
  181POPI   C1321595   4.998   3.763   6.716
  181POPI    H321596   5.075   3.687   6.739
  181POPI    O321597   4.870   3.706   6.749
  181POPI   HO321598   4.858   3.624   6.701
  181POPI   C1421599   5.027   3.888   6.799
  181POPI    H421600   4.953   3.967   6.771
  181POPI    O421601   5.010   3.862   6.939
  181POPI   HO421602   5.020   3.767   6.950
  181POPI   C1521603   5.165   3.945   6.766
  181POPI    H521604   5.242   3.869   6.792
  181POPI    O521605   5.191   4.061   6.847
  181POPI   HO521606   5.183   4.035   6.939
  181POPI   C1621607   5.178   3.975   6.617
  181POPI    H621608   5.107   4.056   6.589
  181POPI    O621609   5.311   4.018   6.584
  181POPI   HO621610   5.324   3.993   6.493
  181POPI   C1121611   5.148   3.850   6.536
  181POPI    H121612   5.219   3.771   6.569
  181POPI     P21613   5.278   3.808   6.305
  181POPI   O1321614   5.289   3.666   6.345
  181POPI   O1421615   5.396   3.892   6.334
  181POPI   O1221616   5.154   3.874   6.394
  181POPI   O1121617   5.232   3.823   6.154
  181POPI    C121618   5.095   3.824   6.109
  181POPI    HA21619   5.062   3.928   6.094
  181POPI    HB21620   5.027   3.775   6.182
  181POPI    C221621   5.074   3.749   5.972
  181POPI    HS21622   5.115   3.647   5.985
  181POPI   O2121623   5.146   3.818   5.868
  181POPI   C2121624   5.140   3.759   5.748
  181POPI   O2221625   5.093   3.649   5.726
  181POPI   C2221626   5.194   3.854   5.641
  181POPI   H2R21627   5.302   3.831   5.625
  181POPI   H2S21628   5.186   3.958   5.678
  181POPI    C321629   4.920   3.735   5.937
  181POPI    HX21630   4.908   3.646   5.872
  181POPI    HY21631   4.865   3.712   6.031
  181POPI   O3121632   4.868   3.857   5.878
  181POPI   C3121633   4.810   3.845   5.758
  181POPI   O3221634   4.775   3.741   5.706
  181POPI   C3221635   4.794   3.983   5.695
  181POPI   H2X21636   4.891   4.037   5.704
  181POPI   H2Y21637   4.716   4.037   5.753
  181POPI   C2321638   5.116   3.838   5.509
  181POPI   H3R21639   5.010   3.864   5.532
  181POPI   H3S21640   5.116   3.733   5.474
  181POPI   C2421641   5.165   3.930   5.396
  181POPI   H4R21642   5.252   3.883   5.345
  181POPI   H4S21643   5.202   4.024   5.441
  181POPI   C2521644   5.057   3.969   5.293
  181POPI   H5R21645   5.103   4.038   5.219
  181POPI   H5S21646   4.979   4.028   5.347
  181POPI   C2621647   4.991   3.854   5.215
  181POPI   H6R21648   4.918   3.899   5.144
  181POPI   H6S21649   4.934   3.788   5.284
  181POPI   C2721650   5.093   3.770   5.137
  181POPI   H7R21651   5.150   3.711   5.212
  181POPI   H7S21652   5.164   3.839   5.087
  181POPI   C2821653   5.041   3.669   5.031
  181POPI   H8R21654   5.058   3.567   5.073
  181POPI   H8S21655   5.109   3.676   4.944
  181POPI   C2921656   4.896   3.676   4.988
  181POPI   H9121657   4.824   3.650   5.067
  181POPI  C21021658   4.850   3.710   4.866
  181POPI  H10121659   4.741   3.710   4.849
  181POPI  C21121660   4.932   3.750   4.746
  181POPI  H11R21661   5.028   3.796   4.776
  181POPI  H11S21662   4.876   3.829   4.691
  181POPI  C21221663   4.962   3.638   4.645
  181POPI  H12R21664   5.025   3.561   4.695
  181POPI  H12S21665   5.023   3.680   4.562
  181POPI  C21321666   4.838   3.570   4.585
  181POPI  H13R21667   4.781   3.525   4.669
  181POPI  H13S21668   4.870   3.487   4.518
  181POPI  C21421669   4.743   3.663   4.506
  181POPI  H14R21670   4.713   3.750   4.568
  181POPI  H14S21671   4.651   3.606   4.483
  181POPI  C21521672   4.801   3.713   4.372
  181POPI  H15R21673   4.836   3.624   4.315
  181POPI  H15S21674   4.889   3.778   4.390
  181POPI  C21621675   4.695   3.787   4.288
  181POPI  H16R21676   4.668   3.881   4.339
  181POPI  H16S21677   4.603   3.725   4.283
  181POPI  C21721678   4.741   3.818   4.144
  181POPI  H17R21679   4.683   3.753   4.076
  181POPI  H17S21680   4.848   3.791   4.133
  181POPI  C21821681   4.722   3.963   4.098
  181POPI  H18R21682   4.727   3.969   3.987
  181POPI  H18S21683   4.624   4.003   4.132
  181POPI  H18T21684   4.803   4.027   4.139
  181POPI   C3321685   4.752   3.976   5.546
  181POPI   H3X21686   4.662   3.912   5.533
  181POPI   H3Y21687   4.830   3.927   5.485
  181POPI   C3421688   4.725   4.114   5.484
  181POPI   H4X21689   4.815   4.178   5.498
  181POPI   H4Y21690   4.640   4.162   5.536
  181POPI   C3521691   4.695   4.102   5.335
  181POPI   H5X21692   4.604   4.040   5.321
  181POPI   H5Y21693   4.778   4.047   5.285
  181POPI   C3621694   4.677   4.237   5.265
  181POPI   H6X21695   4.775   4.290   5.263
  181POPI   H6Y21696   4.607   4.300   5.324
  181POPI   C3721697   4.623   4.223   5.122
  181POPI   H7X21698   4.620   4.323   5.073
  181POPI   H7Y21699   4.517   4.188   5.129
  181POPI   C3821700   4.700   4.126   5.032
  181POPI   H8X21701   4.648   4.125   4.933
  181POPI   H8Y21702   4.695   4.022   5.072
  181POPI   C3921703   4.848   4.159   5.010
  181POPI   H9X21704   4.905   4.142   5.104
  181POPI   H9Y21705   4.859   4.266   4.983
  181POPI  C31021706   4.910   4.076   4.896
  181POPI  H10X21707   4.906   3.968   4.922
  181POPI  H10Y21708   5.018   4.102   4.888
  181POPI  C31121709   4.841   4.101   4.761
  181POPI  H11X21710   4.793   4.201   4.766
  181POPI  H11Y21711   4.760   4.027   4.745
  181POPI  C31221712   4.938   4.101   4.642
  181POPI  H12X21713   4.968   3.997   4.616
  181POPI  H12Y21714   5.031   4.153   4.672
  181POPI  C31321715   4.880   4.172   4.519
  181POPI  H13X21716   4.935   4.267   4.501
  181POPI  H13Y21717   4.774   4.200   4.539
  181POPI  C31421718   4.884   4.087   4.392
  181POPI  H14X21719   4.826   4.140   4.313
  181POPI  H14Y21720   4.832   3.992   4.415
  181POPI  C31521721   5.025   4.057   4.340
  181POPI  H15X21722   5.017   3.974   4.267
  181POPI  H15Y21723   5.089   4.021   4.423
  181POPI  C31621724   5.093   4.176   4.271
  181POPI  H16X21725   5.096   4.264   4.338
  181POPI  H16Y21726   5.197   4.150   4.243
  181POPI  H16Z21727   5.038   4.204   4.178
  182POPI   C1221728   3.094   0.538   6.601
  182POPI    H221729   3.095   0.429   6.578
  182POPI    O221730   2.982   0.595   6.535
  182POPI   HO221731   2.992   0.574   6.442
  182POPI   C1321732   3.086   0.553   6.752
  182POPI    H321733   3.176   0.506   6.797
  182POPI    O321734   2.973   0.485   6.807
  182POPI   HO321735   2.954   0.530   6.890
  182POPI   C1421736   3.085   0.700   6.789
  182POPI    H421737   2.996   0.747   6.741
  182POPI    O421738   3.070   0.718   6.931
  182POPI   HO421739   3.066   0.812   6.950
  182POPI   C1521740   3.210   0.767   6.734
  182POPI    H521741   3.297   0.715   6.780
  182POPI    O521742   3.218   0.905   6.773
  182POPI   HO521743   3.304   0.917   6.814
  182POPI   C1621744   3.224   0.749   6.583
  182POPI    H621745   3.139   0.799   6.532
  182POPI    O621746   3.344   0.808   6.536
  182POPI   HO621747   3.346   0.793   6.441
  182POPI   C1121748   3.224   0.601   6.553
  182POPI    H121749   3.307   0.558   6.612
  182POPI     P21750   3.328   0.443   6.367
  182POPI   O1321751   3.256   0.324   6.416
  182POPI   O1421752   3.467   0.462   6.417
  182POPI   O1221753   3.240   0.576   6.412
  182POPI   O1121754   3.327   0.449   6.211
  182POPI    C121755   3.222   0.501   6.130
  182POPI    HA21756   3.164   0.582   6.180
  182POPI    HB21757   3.150   0.419   6.106
  182POPI    C221758   3.278   0.560   5.998
  182POPI    HS21759   3.193   0.589   5.933
  182POPI   O2121760   3.364   0.465   5.931
  182POPI   C2121761   3.299   0.362   5.880
  182POPI   O2221762   3.178   0.351   5.873
  182POPI   C2221763   3.401   0.259   5.832
  182POPI   H2R21764   3.443   0.211   5.923
  182POPI   H2S21765   3.484   0.313   5.781
  182POPI    C321766   3.361   0.688   6.025
  182POPI    HX21767   3.305   0.748   6.100
  182POPI    HY21768   3.458   0.658   6.070
  182POPI   O3121769   3.384   0.757   5.901
  182POPI   C3121770   3.338   0.880   5.889
  182POPI   O3221771   3.298   0.950   5.982
  182POPI   C3221772   3.340   0.918   5.741
  182POPI   H2X21773   3.397   0.842   5.684
  182POPI   H2Y21774   3.394   1.015   5.732
  182POPI   C2321775   3.339   0.151   5.740
  182POPI   H3R21776   3.254   0.103   5.792
  182POPI   H3S21777   3.416   0.072   5.722
  182POPI   C2421778   3.293   0.204   5.603
  182POPI   H4R21779   3.212   0.279   5.618
  182POPI   H4S21780   3.249   0.120   5.546
  182POPI   C2521781   3.406   0.266   5.521
  182POPI   H5R21782   3.488   0.192   5.512
  182POPI   H5S21783   3.446   0.354   5.576
  182POPI   C2621784   3.364   0.314   5.382
  182POPI   H6R21785   3.401   0.418   5.370
  182POPI   H6S21786   3.254   0.317   5.373
  182POPI   C2721787   3.423   0.230   5.268
  182POPI   H7R21788   3.366   0.135   5.257
  182POPI   H7S21789   3.528   0.203   5.294
  182POPI   C2821790   3.429   0.308   5.135
  182POPI   H8R21791   3.479   0.245   5.058
  182POPI   H8S21792   3.495   0.395   5.154
  182POPI   C2921793   3.295   0.354   5.087
  182POPI   H9121794   3.224   0.273   5.064
  182POPI  C21021795   3.255   0.481   5.071
  182POPI  H10121796   3.153   0.500   5.035
  182POPI  C21121797   3.333   0.608   5.096
  182POPI  H11R21798   3.408   0.594   5.177
  182POPI  H11S21799   3.262   0.685   5.133
  182POPI  C21221800   3.405   0.664   4.972
  182POPI  H12R21801   3.495   0.602   4.953
  182POPI  H12S21802   3.441   0.767   4.995
  182POPI  C21321803   3.324   0.667   4.841
  182POPI  H13R21804   3.298   0.563   4.813
  182POPI  H13S21805   3.391   0.706   4.762
  182POPI  C21421806   3.196   0.752   4.846
  182POPI  H14R21807   3.223   0.858   4.862
  182POPI  H14S21808   3.133   0.719   4.931
  182POPI  C21521809   3.115   0.739   4.716
  182POPI  H15R21810   3.021   0.797   4.726
  182POPI  H15S21811   3.086   0.632   4.702
  182POPI  C21621812   3.193   0.785   4.591
  182POPI  H16R21813   3.276   0.714   4.572
  182POPI  H16S21814   3.238   0.885   4.613
  182POPI  C21721815   3.108   0.797   4.464
  182POPI  H17R21816   3.174   0.832   4.381
  182POPI  H17S21817   3.032   0.877   4.481
  182POPI  C21821818   3.038   0.669   4.421
  182POPI  H18R21819   2.960   0.640   4.495
  182POPI  H18S21820   2.989   0.683   4.322
  182POPI  H18T21821   3.110   0.585   4.412
  182POPI   C3321822   3.198   0.932   5.682
  182POPI   H3X21823   3.207   0.955   5.574
  182POPI   H3Y21824   3.148   1.019   5.730
  182POPI   C3421825   3.108   0.808   5.699
  182POPI   H4X21826   3.004   0.838   5.670
  182POPI   H4Y21827   3.103   0.776   5.805
  182POPI   C3521828   3.145   0.688   5.610
  182POPI   H5X21829   3.245   0.648   5.639
  182POPI   H5Y21830   3.153   0.722   5.504
  182POPI   C3621831   3.040   0.576   5.618
  182POPI   H6X21832   2.938   0.620   5.632
  182POPI   H6Y21833   3.061   0.515   5.709
  182POPI   C3721834   3.037   0.485   5.494
  182POPI   H7X21835   3.030   0.380   5.528
  182POPI   H7Y21836   3.132   0.497   5.438
  182POPI   C3821837   2.917   0.512   5.400
  182POPI   H8X21838   2.907   0.621   5.380
  182POPI   H8Y21839   2.825   0.478   5.452
  182POPI   C3921840   2.932   0.436   5.267
  182POPI   H9X21841   2.972   0.335   5.292
  182POPI   H9Y21842   3.009   0.486   5.205
  182POPI  C31021843   2.801   0.415   5.189
  182POPI  H10X21844   2.718   0.399   5.261
  182POPI  H10Y21845   2.811   0.320   5.131
  182POPI  C31121846   2.762   0.525   5.087
  182POPI  H11X21847   2.734   0.617   5.143
  182POPI  H11Y21848   2.671   0.490   5.034
  182POPI  C31221849   2.868   0.561   4.982
  182POPI  H12X21850   2.946   0.622   5.034
  182POPI  H12Y21851   2.823   0.627   4.904
  182POPI  C31321852   2.940   0.443   4.913
  182POPI  H13X21853   2.972   0.371   4.991
  182POPI  H13Y21854   3.032   0.481   4.865
  182POPI  C31421855   2.860   0.368   4.805
  182POPI  H14X21856   2.755   0.353   4.838
  182POPI  H14Y21857   2.906   0.267   4.793
  182POPI  C31521858   2.868   0.436   4.668
  182POPI  H15X21859   2.974   0.461   4.648
  182POPI  H15Y21860   2.811   0.532   4.672
  182POPI  C31621861   2.818   0.349   4.553
  182POPI  H16X21862   2.715   0.313   4.573
  182POPI  H16Y21863   2.817   0.406   4.458
  182POPI  H16Z21864   2.884   0.261   4.540
  183POPI   C1221865   7.645   4.715   6.492
  183POPI    H221866   7.608   4.610   6.488
  183POPI    O221867   7.580   4.787   6.387
  183POPI   HO221868   7.545   4.724   6.324
  183POPI   C1321869   7.608   4.773   6.627
  183POPI    H321870   7.662   4.713   6.704
  183POPI    O321871   7.468   4.759   6.655
  183POPI   HO321872   7.459   4.730   6.746
  183POPI   C1421873   7.657   4.917   6.637
  183POPI    H421874   7.610   4.976   6.556
  183POPI    O421875   7.617   4.976   6.762
  183POPI   HO421876   7.521   4.983   6.761
  183POPI   C1521877   7.808   4.921   6.617
  183POPI    H521878   7.856   4.862   6.698
  183POPI    O521879   7.858   5.055   6.628
  183POPI   HO521880   7.824   5.105   6.554
  183POPI   C1621881   7.850   4.857   6.484
  183POPI    H621882   7.808   4.916   6.400
  183POPI    O621883   7.992   4.855   6.472
  183POPI   HO621884   8.024   4.935   6.428
  183POPI   C1121885   7.796   4.714   6.475
  183POPI    H121886   7.842   4.656   6.559
  183POPI     P21887   7.852   4.495   6.322
  183POPI   O1321888   7.722   4.424   6.328
  183POPI   O1421889   7.960   4.440   6.408
  183POPI   O1221890   7.830   4.655   6.350
  183POPI   O1121891   7.904   4.490   6.173
  183POPI    C121892   7.948   4.608   6.105
  183POPI    HA21893   8.012   4.576   6.021
  183POPI    HB21894   8.010   4.673   6.170
  183POPI    C221895   7.831   4.692   6.046
  183POPI    HS21896   7.761   4.715   6.129
  183POPI   O2121897   7.764   4.607   5.950
  183POPI   C2121898   7.650   4.651   5.903
  183POPI   O2221899   7.599   4.758   5.928
  183POPI   C2221900   7.583   4.539   5.822
  183POPI   H2R21901   7.474   4.544   5.842
  183POPI   H2S21902   7.621   4.441   5.858
  183POPI    C321903   7.878   4.832   5.991
  183POPI    HX21904   7.789   4.899   5.990
  183POPI    HY21905   7.950   4.877   6.062
  183POPI   O3121906   7.930   4.824   5.858
  183POPI   C3121907   8.052   4.779   5.842
  183POPI   O3221908   8.140   4.771   5.927
  183POPI   C3221909   8.061   4.720   5.703
  183POPI   H2X21910   8.163   4.680   5.688
  183POPI   H2Y21911   8.041   4.799   5.627
  183POPI   C2321912   7.607   4.551   5.670
  183POPI   H3R21913   7.709   4.514   5.648
  183POPI   H3S21914   7.601   4.657   5.637
  183POPI   C2421915   7.510   4.469   5.584
  183POPI   H4R21916   7.407   4.508   5.591
  183POPI   H4S21917   7.510   4.364   5.622
  183POPI   C2521918   7.557   4.467   5.437
  183POPI   H5R21919   7.519   4.375   5.387
  183POPI   H5S21920   7.668   4.458   5.436
  183POPI   C2621921   7.516   4.589   5.354
  183POPI   H6R21922   7.552   4.682   5.403
  183POPI   H6S21923   7.405   4.593   5.346
  183POPI   C2721924   7.574   4.580   5.212
  183POPI   H7R21925   7.533   4.489   5.164
  183POPI   H7S21926   7.684   4.567   5.221
  183POPI   C2821927   7.548   4.699   5.120
  183POPI   H8R21928   7.441   4.728   5.130
  183POPI   H8S21929   7.561   4.664   5.015
  183POPI   C2921930   7.642   4.813   5.151
  183POPI   H9121931   7.633   4.853   5.253
  183POPI  C21021932   7.732   4.868   5.068
  183POPI  H10121933   7.793   4.952   5.104
  183POPI  C21121934   7.759   4.828   4.925
  183POPI  H11R21935   7.742   4.720   4.907
  183POPI  H11S21936   7.866   4.848   4.900
  183POPI  C21221937   7.669   4.909   4.829
  183POPI  H12R21938   7.675   5.017   4.855
  183POPI  H12S21939   7.565   4.875   4.844
  183POPI  C21321940   7.704   4.895   4.680
  183POPI  H13R21941   7.620   4.933   4.618
  183POPI  H13S21942   7.713   4.786   4.658
  183POPI  C21421943   7.832   4.970   4.638
  183POPI  H14R21944   7.895   4.987   4.728
  183POPI  H14S21945   7.805   5.070   4.599
  183POPI  C21521946   7.917   4.894   4.535
  183POPI  H15R21947   8.005   4.955   4.507
  183POPI  H15S21948   7.858   4.878   4.442
  183POPI  C21621949   7.962   4.757   4.590
  183POPI  H16R21950   7.895   4.682   4.544
  183POPI  H16S21951   7.947   4.755   4.700
  183POPI  C21721952   8.106   4.713   4.561
  183POPI  H17R21953   8.125   4.619   4.618
  183POPI  H17S21954   8.177   4.789   4.601
  183POPI  C21821955   8.134   4.686   4.414
  183POPI  H18R21956   8.116   4.778   4.354
  183POPI  H18S21957   8.239   4.654   4.398
  183POPI  H18T21958   8.067   4.606   4.375
  183POPI   C3321959   7.955   4.610   5.697
  183POPI   H3X21960   7.857   4.656   5.670
  183POPI   H3Y21961   7.943   4.561   5.796
  183POPI   C3421962   7.988   4.495   5.603
  183POPI   H4X21963   7.925   4.408   5.633
  183POPI   H4Y21964   8.094   4.464   5.616
  183POPI   C3521965   7.957   4.528   5.458
  183POPI   H5X21966   8.030   4.602   5.419
  183POPI   H5Y21967   7.856   4.573   5.450
  183POPI   C3621968   7.961   4.399   5.377
  183POPI   H6X21969   7.890   4.327   5.423
  183POPI   H6Y21970   8.063   4.355   5.384
  183POPI   C3721971   7.924   4.421   5.231
  183POPI   H7X21972   8.010   4.391   5.168
  183POPI   H7Y21973   7.905   4.529   5.212
  183POPI   C3821974   7.804   4.339   5.186
  183POPI   H8X21975   7.714   4.362   5.247
  183POPI   H8Y21976   7.823   4.230   5.201
  183POPI   C3921977   7.779   4.365   5.039
  183POPI   H9X21978   7.871   4.341   4.982
  183POPI   H9Y21979   7.759   4.473   5.023
  183POPI  C31021980   7.663   4.283   4.987
  183POPI  H10X21981   7.574   4.304   5.051
  183POPI  H10Y21982   7.686   4.174   4.993
  183POPI  C31121983   7.628   4.322   4.845
  183POPI  H11X21984   7.617   4.433   4.844
  183POPI  H11Y21985   7.528   4.280   4.821
  183POPI  C31221986   7.729   4.271   4.742
  183POPI  H12X21987   7.721   4.161   4.735
  183POPI  H12Y21988   7.832   4.294   4.777
  183POPI  C31321989   7.711   4.333   4.603
  183POPI  H13X21990   7.610   4.310   4.564
  183POPI  H13Y21991   7.784   4.288   4.533
  183POPI  C31421992   7.730   4.486   4.602
  183POPI  H14X21993   7.838   4.506   4.618
  183POPI  H14Y21994   7.675   4.534   4.686
  183POPI  C31521995   7.677   4.551   4.474
  183POPI  H15X21996   7.680   4.661   4.484
  183POPI  H15Y21997   7.570   4.523   4.464
  183POPI  C31621998   7.755   4.511   4.349
  183POPI  H16X21999   7.753   4.401   4.335
  183POPI  H16Y22000   7.713   4.558   4.258
  183POPI  H16Z22001   7.860   4.544   4.359
  184POPI   C1222002   0.403   0.675   6.533
  184POPI    H222003   0.375   0.756   6.462
  184POPI    O222004   0.536   0.636   6.504
  184POPI   HO222005   0.527   0.586   6.422
  184POPI   C1322006   0.383   0.726   6.674
  184POPI    H322007   0.275   0.748   6.686
  184POPI    O322008   0.450   0.851   6.696
  184POPI   HO322009   0.394   0.916   6.653
  184POPI   C1422010   0.416   0.615   6.775
  184POPI    H422011   0.521   0.585   6.760
  184POPI    O422012   0.402   0.661   6.910
  184POPI   HO422013   0.311   0.690   6.921
  184POPI   C1522014   0.327   0.493   6.748
  184POPI    H522015   0.222   0.525   6.760
  184POPI    O522016   0.351   0.390   6.844
  184POPI   HO522017   0.269   0.375   6.890
  184POPI   C1622018   0.342   0.444   6.604
  184POPI    H622019   0.445   0.408   6.587
  184POPI    O622020   0.252   0.336   6.578
  184POPI   HO622021   0.198   0.361   6.503
  184POPI   C1122022   0.308   0.559   6.512
  184POPI    H122023   0.209   0.597   6.545
  184POPI     P22024   0.165   0.536   6.295
  184POPI   O1322025   0.115   0.672   6.319
  184POPI   O1422026   0.086   0.423   6.350
  184POPI   O1222027   0.312   0.524   6.372
  184POPI   O1122028   0.202   0.516   6.144
  184POPI    C122029   0.258   0.395   6.092
  184POPI    HA22030   0.222   0.384   5.987
  184POPI    HB22031   0.222   0.305   6.146
  184POPI    C222032   0.414   0.395   6.088
  184POPI    HS22033   0.449   0.402   6.193
  184POPI   O2122034   0.461   0.508   6.011
  184POPI   C2122035   0.590   0.535   6.029
  184POPI   O2222036   0.662   0.481   6.111
  184POPI   C2222037   0.638   0.648   5.937
  184POPI   H2R22038   0.727   0.612   5.880
  184POPI   H2S22039   0.672   0.730   6.004
  184POPI    C322040   0.464   0.261   6.028
  184POPI    HX22041   0.574   0.260   6.014
  184POPI    HY22042   0.441   0.181   6.102
  184POPI   O3122043   0.391   0.231   5.907
  184POPI   C3122044   0.441   0.285   5.797
  184POPI   O3222045   0.554   0.330   5.786
  184POPI   C3222046   0.338   0.279   5.684
  184POPI   H2X22047   0.394   0.286   5.588
  184POPI   H2Y22048   0.275   0.370   5.695
  184POPI   C2322049   0.535   0.707   5.838
  184POPI   H3R22050   0.574   0.804   5.801
  184POPI   H3S22051   0.441   0.727   5.894
  184POPI   C2422052   0.507   0.620   5.715
  184POPI   H4R22053   0.430   0.546   5.742
  184POPI   H4S22054   0.600   0.566   5.686
  184POPI   C2522055   0.460   0.699   5.592
  184POPI   H5R22056   0.546   0.754   5.550
  184POPI   H5S22057   0.385   0.775   5.621
  184POPI   C2622058   0.398   0.610   5.483
  184POPI   H6R22059   0.456   0.515   5.479
  184POPI   H6S22060   0.411   0.661   5.386
  184POPI   C2722061   0.247   0.580   5.502
  184POPI   H7R22062   0.185   0.666   5.468
  184POPI   H7S22063   0.229   0.569   5.611
  184POPI   C2822064   0.203   0.449   5.433
  184POPI   H8R22065   0.132   0.397   5.502
  184POPI   H8S22066   0.294   0.385   5.428
  184POPI   C2922067   0.140   0.454   5.297
  184POPI   H9122068   0.031   0.439   5.296
  184POPI  C21022069   0.203   0.472   5.180
  184POPI  H10122070   0.143   0.475   5.088
  184POPI  C21122071   0.351   0.492   5.160
  184POPI  H11R22072   0.389   0.428   5.077
  184POPI  H11S22073   0.410   0.466   5.251
  184POPI  C21222074   0.372   0.640   5.127
  184POPI  H12R22075   0.320   0.703   5.202
  184POPI  H12S22076   0.323   0.660   5.029
  184POPI  C21322077   0.517   0.688   5.117
  184POPI  H13R22078   0.566   0.679   5.217
  184POPI  H13S22079   0.518   0.796   5.090
  184POPI  C21422080   0.599   0.611   5.014
  184POPI  H14R22081   0.608   0.507   5.051
  184POPI  H14S22082   0.702   0.654   5.008
  184POPI  C21522083   0.537   0.609   4.874
  184POPI  H15R22084   0.541   0.709   4.826
  184POPI  H15S22085   0.430   0.579   4.881
  184POPI  C21622086   0.602   0.503   4.786
  184POPI  H16R22087   0.619   0.412   4.849
  184POPI  H16S22088   0.701   0.537   4.749
  184POPI  C21722089   0.511   0.461   4.672
  184POPI  H17R22090   0.500   0.544   4.598
  184POPI  H17S22091   0.410   0.438   4.712
  184POPI  C21822092   0.567   0.337   4.606
  184POPI  H18R22093   0.494   0.291   4.536
  184POPI  H18S22094   0.660   0.363   4.551
  184POPI  H18T22095   0.593   0.262   4.683
  184POPI   C3322096   0.243   0.155   5.683
  184POPI   H3X22097   0.138   0.190   5.674
  184POPI   H3Y22098   0.249   0.101   5.780
  184POPI   C3422099   0.268   0.055   5.569
  184POPI   H4X22100   0.208  -0.036   5.587
  184POPI   H4Y22101   0.375   0.024   5.569
  184POPI   C3522102   0.230   0.108   5.430
  184POPI   H5X22103   0.301   0.189   5.402
  184POPI   H5Y22104   0.127   0.150   5.432
  184POPI   C3622105   0.239   0.001   5.322
  184POPI   H6X22106   0.163  -0.079   5.339
  184POPI   H6Y22107   0.337  -0.050   5.337
  184POPI   C3722108   0.238   0.056   5.178
  184POPI   H7X22109   0.270  -0.028   5.113
  184POPI   H7Y22110   0.311   0.140   5.170
  184POPI   C3822111   0.110   0.105   5.111
  184POPI   H8X22112   0.050   0.172   5.177
  184POPI   H8Y22113   0.049   0.017   5.083
  184POPI   C3922114   0.141   0.173   4.977
  184POPI   H9X22115   0.225   0.121   4.927
  184POPI   H9Y22116   0.173   0.278   4.996
  184POPI  C31022117   0.020   0.169   4.883
  184POPI  H10X22118  -0.073   0.175   4.944
  184POPI  H10Y22119   0.019   0.072   4.830
  184POPI  C31122120   0.020   0.285   4.783
  184POPI  H11X22121  -0.003   0.379   4.836
  184POPI  H11Y22122  -0.061   0.265   4.708
  184POPI  C31222123   0.153   0.309   4.711
  184POPI  H12X22124   0.208   0.213   4.702
  184POPI  H12Y22125   0.214   0.375   4.776
  184POPI  C31322126   0.131   0.376   4.575
  184POPI  H13X22127   0.224   0.428   4.546
  184POPI  H13Y22128   0.050   0.452   4.583
  184POPI  C31422129   0.098   0.275   4.464
  184POPI  H14X22130   0.084   0.331   4.369
  184POPI  H14Y22131   0.002   0.223   4.485
  184POPI  C31522132   0.210   0.173   4.447
  184POPI  H15X22133   0.210   0.101   4.532
  184POPI  H15Y22134   0.307   0.229   4.451
  184POPI  C31622135   0.206   0.095   4.318
  184POPI  H16X22136   0.182  -0.011   4.339
  184POPI  H16Y22137   0.128   0.136   4.250
  184POPI  H16Z22138   0.303   0.101   4.265
  185POPI   C1222139   7.509   7.590   6.616
  185POPI    H222140   7.462   7.687   6.588
  185POPI    O222141   7.649   7.602   6.593
  185POPI   HO222142   7.658   7.636   6.504
  185POPI   C1322143   7.480   7.569   6.763
  185POPI    H322144   7.370   7.568   6.775
  185POPI    O322145   7.530   7.678   6.841
  185POPI   HO322146   7.564   7.744   6.780
  185POPI   C1422147   7.536   7.434   6.807
  185POPI    H422148   7.644   7.430   6.779
  185POPI    O422149   7.530   7.414   6.949
  185POPI   HO422150   7.487   7.490   6.989
  185POPI   C1522151   7.469   7.323   6.728
  185POPI    H522152   7.359   7.334   6.739
  185POPI    O522153   7.502   7.193   6.779
  185POPI   HO522154   7.422   7.141   6.771
  185POPI   C1622155   7.500   7.341   6.579
  185POPI    H622156   7.610   7.335   6.563
  185POPI    O622157   7.438   7.239   6.502
  185POPI   HO622158   7.421   7.281   6.418
  185POPI   C1122159   7.449   7.477   6.533
  185POPI    H122160   7.339   7.478   6.547
  185POPI     P22161   7.419   7.625   6.312
  185POPI   O1322162   7.504   7.740   6.349
  185POPI   O1422163   7.276   7.633   6.349
  185POPI   O1222164   7.479   7.493   6.393
  185POPI   O1122165   7.437   7.587   6.161
  185POPI    C122166   7.451   7.450   6.122
  185POPI    HA22167   7.374   7.388   6.172
  185POPI    HB22168   7.552   7.412   6.150
  185POPI    C222169   7.433   7.432   5.970
  185POPI    HS22170   7.533   7.450   5.923
  185POPI   O2122171   7.331   7.519   5.917
  185POPI   C2122172   7.377   7.624   5.848
  185POPI   O2222173   7.494   7.652   5.831
  185POPI   C2222174   7.257   7.690   5.777
  185POPI   H2R22175   7.184   7.720   5.855
  185POPI   H2S22176   7.212   7.611   5.714
  185POPI    C322177   7.394   7.284   5.939
  185POPI    HX22178   7.479   7.216   5.961
  185POPI    HY22179   7.311   7.257   6.007
  185POPI   O3122180   7.347   7.269   5.804
  185POPI   C3122181   7.441   7.293   5.713
  185POPI   O3222182   7.560   7.296   5.734
  185POPI   C3222183   7.373   7.321   5.579
  185POPI   H2X22184   7.405   7.422   5.546
  185POPI   H2Y22185   7.263   7.323   5.594
  185POPI   C2322186   7.295   7.811   5.688
  185POPI   H3R22187   7.405   7.812   5.668
  185POPI   H3S22188   7.271   7.905   5.741
  185POPI   C2422189   7.224   7.813   5.552
  185POPI   H4R22190   7.114   7.822   5.567
  185POPI   H4S22191   7.242   7.716   5.501
  185POPI   C2522192   7.274   7.928   5.462
  185POPI   H5R22193   7.374   7.962   5.497
  185POPI   H5S22194   7.205   8.015   5.474
  185POPI   C2622195   7.283   7.894   5.313
  185POPI   H6R22196   7.265   7.986   5.254
  185POPI   H6S22197   7.204   7.821   5.287
  185POPI   C2722198   7.422   7.839   5.272
  185POPI   H7R22199   7.497   7.920   5.285
  185POPI   H7S22200   7.419   7.813   5.164
  185POPI   C2822201   7.464   7.715   5.354
  185POPI   H8R22202   7.386   7.637   5.340
  185POPI   H8S22203   7.462   7.743   5.461
  185POPI   C2922204   7.601   7.660   5.326
  185POPI   H9122205   7.678   7.698   5.394
  185POPI  C21022206   7.636   7.574   5.229
  185POPI  H10122207   7.741   7.542   5.220
  185POPI  C21122208   7.547   7.513   5.126
  185POPI  H11R22209   7.442   7.532   5.159
  185POPI  H11S22210   7.562   7.403   5.125
  185POPI  C21222211   7.549   7.563   4.980
  185POPI  H12R22212   7.653   7.573   4.943
  185POPI  H12S22213   7.502   7.663   4.975
  185POPI  C21322214   7.472   7.463   4.893
  185POPI  H13R22215   7.380   7.433   4.946
  185POPI  H13S22216   7.534   7.371   4.882
  185POPI  C21422217   7.430   7.516   4.756
  185POPI  H14R22218   7.521   7.536   4.695
  185POPI  H14S22219   7.375   7.611   4.768
  185POPI  C21522220   7.339   7.416   4.681
  185POPI  H15R22221   7.315   7.457   4.581
  185POPI  H15S22222   7.244   7.406   4.738
  185POPI  C21622223   7.401   7.276   4.666
  185POPI  H16R22224   7.408   7.230   4.767
  185POPI  H16S22225   7.504   7.287   4.626
  185POPI  C21722226   7.321   7.182   4.576
  185POPI  H17R22227   7.214   7.210   4.580
  185POPI  H17S22228   7.331   7.078   4.613
  185POPI  C21822229   7.370   7.186   4.431
  185POPI  H18R22230   7.303   7.128   4.364
  185POPI  H18S22231   7.373   7.292   4.397
  185POPI  H18T22232   7.473   7.146   4.422
  185POPI   C3322233   7.411   7.215   5.475
  185POPI   H3X22234   7.409   7.114   5.522
  185POPI   H3Y22235   7.514   7.232   5.438
  185POPI   C3422236   7.311   7.215   5.359
  185POPI   H4X22237   7.208   7.209   5.400
  185POPI   H4Y22238   7.329   7.123   5.298
  185POPI   C3522239   7.326   7.337   5.268
  185POPI   H5X22240   7.354   7.302   5.166
  185POPI   H5Y22241   7.411   7.397   5.308
  185POPI   C3622242   7.204   7.430   5.255
  185POPI   H6X22243   7.208   7.510   5.332
  185POPI   H6Y22244   7.113   7.369   5.274
  185POPI   C3722245   7.183   7.490   5.115
  185POPI   H7X22246   7.178   7.407   5.041
  185POPI   H7Y22247   7.269   7.554   5.086
  185POPI   C3822248   7.063   7.584   5.104
  185POPI   H8X22249   7.096   7.675   5.048
  185POPI   H8Y22250   7.037   7.617   5.207
  185POPI   C3922251   6.939   7.529   5.033
  185POPI   H9X22252   6.870   7.613   5.011
  185POPI   H9Y22253   6.881   7.465   5.103
  185POPI  C31022254   6.962   7.466   4.895
  185POPI  H10X22255   6.865   7.427   4.860
  185POPI  H10Y22256   7.032   7.380   4.899
  185POPI  C31122257   7.012   7.572   4.797
  185POPI  H11X22258   7.120   7.594   4.813
  185POPI  H11Y22259   6.956   7.666   4.815
  185POPI  C31222260   6.986   7.531   4.652
  185POPI  H12X22261   6.884   7.489   4.646
  185POPI  H12Y22262   7.058   7.452   4.621
  185POPI  C31322263   6.994   7.650   4.558
  185POPI  H13X22264   7.094   7.698   4.572
  185POPI  H13Y22265   6.918   7.726   4.585
  185POPI  C31422266   6.974   7.609   4.412
  185POPI  H14X22267   6.866   7.595   4.392
  185POPI  H14Y22268   7.024   7.511   4.394
  185POPI  C31522269   7.032   7.710   4.313
  185POPI  H15X22270   6.988   7.809   4.334
  185POPI  H15Y22271   7.005   7.680   4.210
  185POPI  C31622272   7.184   7.722   4.323
  185POPI  H16X22273   7.229   7.621   4.332
  185POPI  H16Y22274   7.226   7.774   4.234
  185POPI  H16Z22275   7.213   7.780   4.414
  186POPI   C1222276   2.930   1.449   2.029
  186POPI    H222277   2.845   1.410   2.089
  186POPI    O222278   3.050   1.411   2.096
  186POPI   HO222279   3.024   1.365   2.176
  186POPI   C1322280   2.921   1.388   1.890
  186POPI    H322281   2.822   1.415   1.848
  186POPI    O322282   2.927   1.245   1.892
  186POPI   HO322283   2.876   1.211   1.966
  186POPI   C1422284   3.029   1.448   1.800
  186POPI    H422285   3.128   1.423   1.844
  186POPI    O422286   3.024   1.386   1.671
  186POPI   HO422287   3.038   1.293   1.692
  186POPI   C1522288   3.019   1.600   1.793
  186POPI    H522289   2.919   1.625   1.751
  186POPI    O522290   3.117   1.660   1.708
  186POPI   HO522291   3.130   1.747   1.747
  186POPI   C1622292   3.026   1.659   1.933
  186POPI    H622293   3.125   1.635   1.979
  186POPI    O622294   3.012   1.801   1.929
  186POPI   HO622295   2.962   1.820   2.009
  186POPI   C1122296   2.915   1.600   2.018
  186POPI    H122297   2.820   1.621   1.964
  186POPI     P22298   2.773   1.693   2.224
  186POPI   O1322299   2.677   1.586   2.192
  186POPI   O1422300   2.735   1.831   2.186
  186POPI   O1222301   2.916   1.661   2.148
  186POPI   O1122302   2.815   1.687   2.375
  186POPI    C122303   2.893   1.792   2.434
  186POPI    HA22304   2.863   1.803   2.540
  186POPI    HB22305   2.876   1.890   2.384
  186POPI    C222306   3.046   1.764   2.436
  186POPI    HS22307   3.077   1.739   2.332
  186POPI   O2122308   3.068   1.650   2.520
  186POPI   C2122309   3.184   1.625   2.572
  186POPI   O2222310   3.291   1.679   2.547
  186POPI   C2222311   3.169   1.510   2.672
  186POPI   H2R22312   3.254   1.440   2.658
  186POPI   H2S22313   3.074   1.457   2.652
  186POPI    C322314   3.122   1.894   2.477
  186POPI    HX22315   3.231   1.883   2.456
  186POPI    HY22316   3.085   1.977   2.413
  186POPI   O3122317   3.098   1.925   2.616
  186POPI   C3122318   3.166   2.031   2.661
  186POPI   O3222319   3.232   2.105   2.590
  186POPI   C3222320   3.146   2.043   2.812
  186POPI   H2X22321   3.052   2.100   2.829
  186POPI   H2Y22322   3.224   2.110   2.854
  186POPI   C2322323   3.169   1.565   2.815
  186POPI   H3R22324   3.099   1.651   2.820
  186POPI   H3S22325   3.270   1.602   2.843
  186POPI   C2422326   3.121   1.465   2.919
  186POPI   H4R22327   3.183   1.373   2.918
  186POPI   H4S22328   3.017   1.434   2.895
  186POPI   C2522329   3.124   1.528   3.058
  186POPI   H5R22330   3.069   1.624   3.055
  186POPI   H5S22331   3.230   1.547   3.087
  186POPI   C2622332   3.056   1.440   3.163
  186POPI   H6R22333   3.107   1.341   3.166
  186POPI   H6S22334   2.951   1.424   3.128
  186POPI   C2722335   3.048   1.497   3.305
  186POPI   H7R22336   2.992   1.423   3.366
  186POPI   H7S22337   2.988   1.591   3.306
  186POPI   C2822338   3.184   1.518   3.373
  186POPI   H8R22339   3.255   1.440   3.338
  186POPI   H8S22340   3.170   1.499   3.481
  186POPI   C2922341   3.239   1.656   3.348
  186POPI   H9122342   3.252   1.685   3.243
  186POPI  C21022343   3.271   1.745   3.443
  186POPI  H10122344   3.311   1.843   3.415
  186POPI  C21122345   3.259   1.720   3.591
  186POPI  H11R22346   3.301   1.620   3.619
  186POPI  H11S22347   3.153   1.722   3.623
  186POPI  C21222348   3.337   1.827   3.668
  186POPI  H12R22349   3.289   1.926   3.648
  186POPI  H12S22350   3.442   1.832   3.631
  186POPI  C21322351   3.341   1.805   3.819
  186POPI  H13R22352   3.397   1.889   3.865
  186POPI  H13S22353   3.396   1.712   3.842
  186POPI  C21422354   3.202   1.798   3.884
  186POPI  H14R22355   3.155   1.702   3.856
  186POPI  H14S22356   3.138   1.880   3.845
  186POPI  C21522357   3.211   1.810   4.036
  186POPI  H15R22358   3.227   1.916   4.064
  186POPI  H15S22359   3.299   1.752   4.072
  186POPI  C21622360   3.086   1.755   4.107
  186POPI  H16R22361   3.077   1.646   4.086
  186POPI  H16S22362   2.996   1.805   4.065
  186POPI  C21722363   3.093   1.777   4.258
  186POPI  H17R22364   3.106   1.886   4.278
  186POPI  H17S22365   3.183   1.725   4.298
  186POPI  C21822366   2.968   1.727   4.331
  186POPI  H18R22367   2.877   1.777   4.293
  186POPI  H18S22368   2.957   1.617   4.316
  186POPI  H18T22369   2.977   1.747   4.440
  186POPI   C3322370   3.141   1.907   2.887
  186POPI   H3X22371   3.220   1.840   2.845
  186POPI   H3Y22372   3.043   1.860   2.867
  186POPI   C3422373   3.164   1.913   3.039
  186POPI   H4X22374   3.271   1.936   3.061
  186POPI   H4Y22375   3.145   1.813   3.083
  186POPI   C3522376   3.077   2.015   3.111
  186POPI   H5X22377   2.969   1.997   3.088
  186POPI   H5Y22378   3.105   2.115   3.070
  186POPI   C3622379   3.096   2.021   3.263
  186POPI   H6X22380   3.082   2.127   3.295
  186POPI   H6Y22381   3.201   1.994   3.290
  186POPI   C3722382   2.996   1.937   3.344
  186POPI   H7X22383   3.020   1.829   3.332
  186POPI   H7Y22384   2.894   1.952   3.303
  186POPI   C3822385   2.996   1.975   3.493
  186POPI   H8X22386   2.962   2.080   3.503
  186POPI   H8Y22387   3.100   1.970   3.531
  186POPI   C3922388   2.907   1.886   3.582
  186POPI   H9X22389   2.914   1.923   3.686
  186POPI   H9Y22390   2.946   1.781   3.581
  186POPI  C31022391   2.760   1.883   3.540
  186POPI  H10X22392   2.751   1.828   3.444
  186POPI  H10Y22393   2.724   1.987   3.522
  186POPI  C31122394   2.667   1.817   3.644
  186POPI  H11X22395   2.713   1.723   3.681
  186POPI  H11Y22396   2.573   1.791   3.591
  186POPI  C31222397   2.632   1.909   3.762
  186POPI  H12X22398   2.614   2.011   3.722
  186POPI  H12Y22399   2.718   1.916   3.833
  186POPI  C31322400   2.505   1.865   3.836
  186POPI  H13X22401   2.443   1.802   3.768
  186POPI  H13Y22402   2.445   1.955   3.861
  186POPI  C31422403   2.530   1.787   3.966
  186POPI  H14X22404   2.580   1.855   4.039
  186POPI  H14Y22405   2.599   1.702   3.947
  186POPI  C31522406   2.399   1.735   4.026
  186POPI  H15X22407   2.352   1.666   3.953
  186POPI  H15Y22408   2.330   1.821   4.039
  186POPI  C31622409   2.415   1.663   4.160
  186POPI  H16X22410   2.340   1.698   4.234
  186POPI  H16Y22411   2.401   1.554   4.147
  186POPI  H16Z22412   2.517   1.679   4.202
  187POPI   C1222413   2.088   6.059   1.964
  187POPI    H222414   2.025   6.077   2.054
  187POPI    O222415   2.048   5.936   1.905
  187POPI   HO222416   2.101   5.873   1.955
  187POPI   C1322417   2.072   6.175   1.869
  187POPI    H322418   2.102   6.267   1.923
  187POPI    O322419   1.934   6.193   1.833
  187POPI   HO322420   1.888   6.112   1.856
  187POPI   C1422421   2.164   6.161   1.748
  187POPI    H422422   2.137   6.068   1.694
  187POPI    O422423   2.144   6.271   1.658
  187POPI   HO422424   2.054   6.266   1.627
  187POPI   C1522425   2.310   6.149   1.794
  187POPI    H522426   2.335   6.243   1.849
  187POPI    O522427   2.402   6.142   1.685
  187POPI   HO522428   2.395   6.055   1.643
  187POPI   C1622429   2.327   6.032   1.891
  187POPI    H622430   2.305   5.937   1.838
  187POPI    O622431   2.460   6.026   1.942
  187POPI   HO622432   2.454   6.020   2.038
  187POPI   C1122433   2.232   6.049   2.007
  187POPI    H122434   2.257   6.147   2.053
  187POPI     P22435   2.279   5.979   2.254
  187POPI   O1322436   2.172   6.071   2.299
  187POPI   O1422437   2.416   6.031   2.242
  187POPI   O1222438   2.239   5.938   2.099
  187POPI   O1122439   2.273   5.838   2.328
  187POPI    C122440   2.147   5.777   2.357
  187POPI    HA22441   2.130   5.694   2.285
  187POPI    HB22442   2.060   5.846   2.349
  187POPI    C222443   2.144   5.718   2.501
  187POPI    HS22444   2.053   5.656   2.506
  187POPI   O2122445   2.137   5.827   2.595
  187POPI   C2122446   2.074   5.798   2.707
  187POPI   O2222447   2.014   5.694   2.729
  187POPI   C2222448   2.091   5.913   2.805
  187POPI   H2R22449   2.039   6.002   2.764
  187POPI   H2S22450   2.200   5.936   2.814
  187POPI    C322451   2.269   5.629   2.531
  187POPI    HX22452   2.301   5.585   2.434
  187POPI    HY22453   2.352   5.694   2.563
  187POPI   O3122454   2.238   5.520   2.623
  187POPI   C3122455   2.270   5.544   2.752
  187POPI   O3222456   2.333   5.639   2.792
  187POPI   C3222457   2.215   5.431   2.840
  187POPI   H2X22458   2.298   5.361   2.863
  187POPI   H2Y22459   2.138   5.377   2.782
  187POPI   C2322460   2.034   5.876   2.943
  187POPI   H3R22461   2.092   5.791   2.985
  187POPI   H3S22462   1.928   5.843   2.931
  187POPI   C2422463   2.038   5.992   3.042
  187POPI   H4R22464   1.981   6.077   2.998
  187POPI   H4S22465   2.143   6.028   3.053
  187POPI   C2522466   1.983   5.960   3.183
  187POPI   H5R22467   1.950   6.055   3.229
  187POPI   H5S22468   2.066   5.923   3.247
  187POPI   C2622469   1.868   5.858   3.190
  187POPI   H6R22470   1.899   5.763   3.140
  187POPI   H6S22471   1.779   5.895   3.135
  187POPI   C2722472   1.830   5.823   3.334
  187POPI   H7R22473   1.922   5.794   3.390
  187POPI   H7S22474   1.763   5.734   3.332
  187POPI   C2822475   1.759   5.937   3.408
  187POPI   H8R22476   1.666   5.963   3.352
  187POPI   H8S22477   1.824   6.027   3.406
  187POPI   C2922478   1.725   5.896   3.549
  187POPI   H9122479   1.659   5.809   3.558
  187POPI  C21022480   1.768   5.956   3.662
  187POPI  H10122481   1.737   5.916   3.759
  187POPI  C21122482   1.858   6.077   3.670
  187POPI  H11R22483   1.846   6.125   3.769
  187POPI  H11S22484   1.830   6.153   3.594
  187POPI  C21222485   2.008   6.043   3.652
  187POPI  H12R22486   2.066   6.137   3.666
  187POPI  H12S22487   2.026   6.010   3.547
  187POPI  C21322488   2.059   5.937   3.750
  187POPI  H13R22489   1.983   5.921   3.830
  187POPI  H13S22490   2.150   5.977   3.801
  187POPI  C21422491   2.095   5.803   3.685
  187POPI  H14R22492   2.205   5.791   3.689
  187POPI  H14S22493   2.065   5.802   3.577
  187POPI  C21522494   2.030   5.681   3.753
  187POPI  H15R22495   1.925   5.670   3.720
  187POPI  H15S22496   2.027   5.702   3.863
  187POPI  C21622497   2.108   5.552   3.728
  187POPI  H16R22498   2.217   5.573   3.739
  187POPI  H16S22499   2.092   5.520   3.622
  187POPI  C21722500   2.073   5.436   3.823
  187POPI  H17R22501   2.130   5.347   3.791
  187POPI  H17S22502   1.965   5.413   3.815
  187POPI  C21822503   2.108   5.465   3.970
  187POPI  H18R22504   2.094   5.375   4.033
  187POPI  H18S22505   2.214   5.498   3.978
  187POPI  H18T22506   2.045   5.547   4.011
  187POPI   C3322507   2.150   5.482   2.972
  187POPI   H3X22508   2.075   5.406   3.004
  187POPI   H3Y22509   2.095   5.577   2.956
  187POPI   C3422510   2.252   5.496   3.086
  187POPI   H4X22511   2.326   5.573   3.058
  187POPI   H4Y22512   2.304   5.398   3.095
  187POPI   C3522513   2.194   5.529   3.225
  187POPI   H5X22514   2.263   5.490   3.304
  187POPI   H5Y22515   2.099   5.473   3.238
  187POPI   C3622516   2.170   5.678   3.252
  187POPI   H6X22517   2.124   5.689   3.353
  187POPI   H6Y22518   2.093   5.708   3.178
  187POPI   C3722519   2.287   5.780   3.239
  187POPI   H7X22520   2.254   5.859   3.169
  187POPI   H7Y22521   2.377   5.735   3.191
  187POPI   C3822522   2.325   5.849   3.372
  187POPI   H8X22523   2.381   5.777   3.435
  187POPI   H8Y22524   2.232   5.876   3.427
  187POPI   C3922525   2.411   5.977   3.358
  187POPI   H9X22526   2.352   6.067   3.383
  187POPI   H9Y22527   2.437   5.985   3.250
  187POPI  C31022528   2.543   5.975   3.437
  187POPI  H10X22529   2.618   6.034   3.380
  187POPI  H10Y22530   2.581   5.871   3.439
  187POPI  C31122531   2.544   6.033   3.581
  187POPI  H11X22532   2.538   6.144   3.575
  187POPI  H11Y22533   2.643   6.008   3.624
  187POPI  C31222534   2.431   5.986   3.674
  187POPI  H12X22535   2.390   5.892   3.631
  187POPI  H12Y22536   2.349   6.060   3.670
  187POPI  C31322537   2.463   5.954   3.823
  187POPI  H13X22538   2.468   5.844   3.835
  187POPI  H13Y22539   2.374   5.986   3.882
  187POPI  C31422540   2.587   6.013   3.892
  187POPI  H14X22541   2.570   6.121   3.911
  187POPI  H14Y22542   2.677   6.005   3.828
  187POPI  C31522543   2.620   5.940   4.025
  187POPI  H15X22544   2.664   5.841   4.001
  187POPI  H15Y22545   2.525   5.919   4.079
  187POPI  C31622546   2.715   6.012   4.121
  187POPI  H16X22547   2.815   6.026   4.074
  187POPI  H16Y22548   2.675   6.112   4.150
  187POPI  H16Z22549   2.729   5.952   4.214
  188POPI   C1222550   5.385   1.659   2.029
  188POPI    H222551   5.450   1.632   2.114
  188POPI    O222552   5.327   1.787   2.056
  188POPI   HO222553   5.309   1.790   2.150
  188POPI   C1322554   5.470   1.663   1.903
  188POPI    H322555   5.513   1.562   1.888
  188POPI    O322556   5.580   1.753   1.917
  188POPI   HO322557   5.566   1.806   1.996
  188POPI   C1422558   5.383   1.697   1.783
  188POPI    H422559   5.339   1.798   1.798
  188POPI    O422560   5.465   1.704   1.666
  188POPI   HO422561   5.549   1.738   1.697
  188POPI   C1522562   5.269   1.596   1.770
  188POPI    H522563   5.313   1.496   1.749
  188POPI    O522564   5.179   1.627   1.662
  188POPI   HO522565   5.092   1.610   1.699
  188POPI   C1622566   5.187   1.587   1.898
  188POPI    H622567   5.139   1.685   1.919
  188POPI    O622568   5.083   1.490   1.886
  188POPI   HO622569   5.100   1.422   1.952
  188POPI   C1122570   5.279   1.552   2.014
  188POPI    H122571   5.333   1.459   1.986
  188POPI     P22572   5.191   1.387   2.202
  188POPI   O1322573   5.324   1.341   2.246
  188POPI   O1422574   5.122   1.308   2.096
  188POPI   O1222575   5.208   1.540   2.138
  188POPI   O1122576   5.087   1.406   2.320
  188POPI    C122577   4.967   1.478   2.288
  188POPI    HA22578   4.918   1.440   2.196
  188POPI    HB22579   4.991   1.586   2.272
  188POPI    C222580   4.861   1.478   2.402
  188POPI    HS22581   4.778   1.540   2.362
  188POPI   O2122582   4.922   1.537   2.518
  188POPI   C2122583   4.835   1.597   2.594
  188POPI   O2222584   4.727   1.640   2.559
  188POPI   C2222585   4.890   1.605   2.734
  188POPI   H2R22586   4.970   1.682   2.736
  188POPI   H2S22587   4.935   1.507   2.761
  188POPI    C322588   4.798   1.340   2.441
  188POPI    HX22589   4.701   1.360   2.492
  188POPI    HY22590   4.771   1.287   2.347
  188POPI   O3122591   4.887   1.256   2.518
  188POPI   C3122592   4.866   1.256   2.651
  188POPI   O3222593   4.771   1.306   2.707
  188POPI   C3222594   4.988   1.195   2.719
  188POPI   H2X22595   5.073   1.264   2.701
  188POPI   H2Y22596   5.009   1.097   2.669
  188POPI   C2322597   4.776   1.639   2.831
  188POPI   H3R22598   4.703   1.556   2.838
  188POPI   H3S22599   4.723   1.729   2.794
  188POPI   C2422600   4.834   1.672   2.967
  188POPI   H4R22601   4.758   1.726   3.029
  188POPI   H4S22602   4.920   1.741   2.951
  188POPI   C2522603   4.883   1.551   3.044
  188POPI   H5R22604   4.958   1.587   3.117
  188POPI   H5S22605   4.938   1.480   2.978
  188POPI   C2622606   4.768   1.481   3.117
  188POPI   H6R22607   4.738   1.391   3.059
  188POPI   H6S22608   4.679   1.547   3.124
  188POPI   C2722609   4.812   1.444   3.258
  188POPI   H7R22610   4.905   1.385   3.244
  188POPI   H7S22611   4.737   1.376   3.304
  188POPI   C2822612   4.837   1.567   3.350
  188POPI   H8R22613   4.739   1.590   3.397
  188POPI   H8S22614   4.871   1.656   3.293
  188POPI   C2922615   4.937   1.523   3.452
  188POPI   H9122616   4.923   1.416   3.474
  188POPI  C21022617   5.036   1.584   3.522
  188POPI  H10122618   5.092   1.504   3.573
  188POPI  C21122619   5.096   1.725   3.540
  188POPI  H11R22620   5.032   1.798   3.485
  188POPI  H11S22621   5.185   1.717   3.474
  188POPI  C21222622   5.168   1.800   3.668
  188POPI  H12R22623   5.203   1.889   3.612
  188POPI  H12S22624   5.265   1.750   3.688
  188POPI  C21322625   5.113   1.882   3.797
  188POPI  H13R22626   5.018   1.935   3.775
  188POPI  H13S22627   5.185   1.966   3.794
  188POPI  C21422628   5.116   1.864   3.958
  188POPI  H14R22629   5.065   1.960   3.984
  188POPI  H14S22630   5.220   1.884   3.990
  188POPI  C21522631   5.042   1.772   4.067
  188POPI  H15R22632   4.934   1.752   4.049
  188POPI  H15S22633   5.044   1.833   4.160
  188POPI  C21622634   5.110   1.640   4.112
  188POPI  H16R22635   5.219   1.658   4.104
  188POPI  H16S22636   5.084   1.556   4.044
  188POPI  C21722637   5.098   1.573   4.248
  188POPI  H17R22638   4.996   1.533   4.264
  188POPI  H17S22639   5.125   1.643   4.330
  188POPI  C21822640   5.198   1.455   4.243
  188POPI  H18R22641   5.184   1.382   4.326
  188POPI  H18S22642   5.187   1.399   4.148
  188POPI  H18T22643   5.302   1.492   4.245
  188POPI   C3322644   4.975   1.172   2.872
  188POPI   H3X22645   4.899   1.093   2.892
  188POPI   H3Y22646   4.942   1.264   2.924
  188POPI   C3422647   5.109   1.126   2.928
  188POPI   H4X22648   5.181   1.210   2.923
  188POPI   H4Y22649   5.148   1.045   2.863
  188POPI   C3522650   5.107   1.065   3.069
  188POPI   H5X22651   5.206   1.017   3.086
  188POPI   H5Y22652   5.031   0.985   3.075
  188POPI   C3622653   5.087   1.168   3.181
  188POPI   H6X22654   5.104   1.116   3.278
  188POPI   H6Y22655   4.981   1.202   3.180
  188POPI   C3722656   5.181   1.289   3.169
  188POPI   H7X22657   5.136   1.362   3.097
  188POPI   H7Y22658   5.280   1.258   3.129
  188POPI   C3822659   5.202   1.357   3.304
  188POPI   H8X22660   5.102   1.359   3.352
  188POPI   H8Y22661   5.235   1.462   3.292
  188POPI   C3922662   5.301   1.281   3.393
  188POPI   H9X22663   5.404   1.311   3.363
  188POPI   H9Y22664   5.292   1.172   3.378
  188POPI  C31022665   5.281   1.310   3.542
  188POPI  H10X22666   5.279   1.421   3.555
  188POPI  H10Y22667   5.369   1.274   3.598
  188POPI  C31122668   5.150   1.249   3.598
  188POPI  H11X22669   5.067   1.259   3.526
  188POPI  H11Y22670   5.120   1.307   3.688
  188POPI  C31222671   5.159   1.102   3.641
  188POPI  H12X22672   5.168   1.038   3.551
  188POPI  H12Y22673   5.063   1.076   3.692
  188POPI  C31322674   5.275   1.072   3.736
  188POPI  H13X22675   5.368   1.071   3.675
  188POPI  H13Y22676   5.264   0.969   3.776
  188POPI  C31422677   5.296   1.172   3.852
  188POPI  H14X22678   5.329   1.270   3.813
  188POPI  H14Y22679   5.379   1.135   3.916
  188POPI  C31522680   5.177   1.196   3.946
  188POPI  H15X22681   5.110   1.274   3.907
  188POPI  H15Y22682   5.221   1.234   4.041
  188POPI  C31622683   5.092   1.074   3.978
  188POPI  H16X22684   4.992   1.085   3.932
  188POPI  H16Y22685   5.137   0.979   3.942
  188POPI  H16Z22686   5.082   1.066   4.088
  189POPI   C1222687   1.111   0.873   1.934
  189POPI    H222688   1.198   0.836   1.994
  189POPI    O222689   1.099   1.013   1.958
  189POPI   HO222690   1.077   1.016   2.052
  189POPI   C1322691   1.143   0.844   1.789
  189POPI    H322692   1.161   0.735   1.777
  189POPI    O322693   1.264   0.912   1.751
  189POPI   HO322694   1.254   0.999   1.791
  189POPI   C1422695   1.026   0.883   1.700
  189POPI    H422696   1.011   0.993   1.710
  189POPI    O422697   1.053   0.855   1.562
  189POPI   HO422698   0.992   0.907   1.510
  189POPI   C1522699   0.899   0.812   1.745
  189POPI    H522700   0.916   0.702   1.735
  189POPI    O522701   0.787   0.847   1.663
  189POPI   HO522702   0.711   0.805   1.704
  189POPI   C1622703   0.868   0.840   1.891
  189POPI    H622704   0.847   0.949   1.902
  189POPI    O622705   0.750   0.768   1.929
  189POPI   HO622706   0.705   0.822   1.994
  189POPI   C1122707   0.985   0.801   1.979
  189POPI    H122708   0.999   0.691   1.965
  189POPI     P22709   1.042   0.754   2.235
  189POPI   O1322710   1.176   0.815   2.237
  189POPI   O1422711   1.037   0.609   2.207
  189POPI   O1222712   0.955   0.831   2.117
  189POPI   O1122713   0.964   0.788   2.367
  189POPI    C122714   0.821   0.791   2.376
  189POPI    HA22715   0.773   0.718   2.307
  189POPI    HB22716   0.785   0.893   2.349
  189POPI    C222717   0.771   0.763   2.521
  189POPI    HS22718   0.664   0.794   2.525
  189POPI   O2122719   0.848   0.845   2.611
  189POPI   C2122720   0.826   0.827   2.740
  189POPI   O2222721   0.738   0.760   2.789
  189POPI   C2222722   0.930   0.911   2.817
  189POPI   H2R22723   0.907   1.019   2.803
  189POPI   H2S22724   1.028   0.891   2.770
  189POPI    C322725   0.773   0.609   2.553
  189POPI    HX22726   0.704   0.589   2.637
  189POPI    HY22727   0.732   0.556   2.465
  189POPI   O3122728   0.907   0.563   2.583
  189POPI   C3122729   0.911   0.437   2.624
  189POPI   O3222730   0.817   0.360   2.625
  189POPI   C3222731   1.055   0.399   2.656
  189POPI   H2X22732   1.120   0.444   2.578
  189POPI   H2Y22733   1.061   0.288   2.649
  189POPI   C2322734   0.941   0.877   2.968
  189POPI   H3R22735   1.021   0.938   3.015
  189POPI   H3S22736   0.974   0.771   2.974
  189POPI   C2422737   0.816   0.883   3.055
  189POPI   H4R22738   0.727   0.843   3.001
  189POPI   H4S22739   0.790   0.987   3.084
  189POPI   C2522740   0.835   0.791   3.177
  189POPI   H5R22741   0.881   0.695   3.146
  189POPI   H5S22742   0.735   0.761   3.216
  189POPI   C2622743   0.915   0.852   3.291
  189POPI   H6R22744   1.020   0.868   3.259
  189POPI   H6S22745   0.916   0.780   3.376
  189POPI   C2722746   0.864   0.986   3.343
  189POPI   H7R22747   0.757   0.978   3.371
  189POPI   H7S22748   0.873   1.064   3.264
  189POPI   C2822749   0.944   1.027   3.466
  189POPI   H8R22750   1.051   1.037   3.438
  189POPI   H8S22751   0.937   0.943   3.539
  189POPI   C2922752   0.893   1.155   3.525
  189POPI   H9122753   0.830   1.218   3.460
  189POPI  C21022754   0.920   1.194   3.649
  189POPI  H10122755   0.879   1.289   3.687
  189POPI  C21122756   1.004   1.116   3.747
  189POPI  H11R22757   1.108   1.155   3.749
  189POPI  H11S22758   1.012   1.007   3.723
  189POPI  C21222759   0.944   1.132   3.886
  189POPI  H12R22760   0.931   1.240   3.908
  189POPI  H12S22761   1.014   1.089   3.961
  189POPI  C21322762   0.808   1.066   3.906
  189POPI  H13R22763   0.732   1.106   3.834
  189POPI  H13S22764   0.773   1.092   4.008
  189POPI  C21422765   0.817   0.915   3.893
  189POPI  H14R22766   0.911   0.880   3.942
  189POPI  H14S22767   0.820   0.884   3.787
  189POPI  C21522768   0.700   0.852   3.966
  189POPI  H15R22769   0.603   0.883   3.920
  189POPI  H15S22770   0.699   0.893   4.069
  189POPI  C21622771   0.713   0.701   3.973
  189POPI  H16R22772   0.820   0.672   3.979
  189POPI  H16S22773   0.671   0.654   3.881
  189POPI  C21722774   0.642   0.650   4.097
  189POPI  H17R22775   0.615   0.543   4.079
  189POPI  H17S22776   0.547   0.706   4.108
  189POPI  C21822777   0.727   0.662   4.223
  189POPI  H18R22778   0.808   0.586   4.223
  189POPI  H18S22779   0.774   0.763   4.230
  189POPI  H18T22780   0.665   0.648   4.314
  189POPI   C3322781   1.106   0.443   2.796
  189POPI   H3X22782   1.212   0.411   2.805
  189POPI   H3Y22783   1.049   0.394   2.877
  189POPI   C3422784   1.100   0.595   2.813
  189POPI   H4X22785   0.995   0.621   2.837
  189POPI   H4Y22786   1.123   0.643   2.715
  189POPI   C3522787   1.197   0.654   2.917
  189POPI   H5X22788   1.187   0.764   2.912
  189POPI   H5Y22789   1.302   0.629   2.890
  189POPI   C3622790   1.169   0.612   3.062
  189POPI   H6X22791   1.212   0.511   3.078
  189POPI   H6Y22792   1.060   0.604   3.079
  189POPI   C3722793   1.228   0.711   3.164
  189POPI   H7X22794   1.182   0.811   3.149
  189POPI   H7Y22795   1.337   0.725   3.146
  189POPI   C3822796   1.208   0.664   3.309
  189POPI   H8X22797   1.249   0.561   3.320
  189POPI   H8Y22798   1.099   0.657   3.329
  189POPI   C3922799   1.273   0.756   3.413
  189POPI   H9X22800   1.265   0.861   3.379
  189POPI   H9Y22801   1.381   0.731   3.421
  189POPI  C31022802   1.210   0.749   3.554
  189POPI  H10X22803   1.113   0.803   3.548
  189POPI  H10Y22804   1.273   0.805   3.626
  189POPI  C31122805   1.182   0.608   3.608
  189POPI  H11X22806   1.264   0.577   3.677
  189POPI  H11Y22807   1.180   0.534   3.525
  189POPI  C31222808   1.047   0.601   3.680
  189POPI  H12X22809   0.968   0.647   3.617
  189POPI  H12Y22810   1.054   0.661   3.773
  189POPI  C31322811   1.006   0.457   3.712
  189POPI  H13X22812   1.099   0.405   3.746
  189POPI  H13Y22813   0.970   0.406   3.621
  189POPI  C31422814   0.900   0.450   3.823
  189POPI  H14X22815   0.808   0.499   3.787
  189POPI  H14Y22816   0.938   0.508   3.910
  189POPI  C31522817   0.867   0.309   3.871
  189POPI  H15X22818   0.959   0.259   3.909
  189POPI  H15Y22819   0.828   0.248   3.786
  189POPI  C31622820   0.766   0.308   3.986
  189POPI  H16X22821   0.803   0.369   4.070
  189POPI  H16Y22822   0.669   0.351   3.951
  189POPI  H16Z22823   0.748   0.205   4.022
  190POPI   C1222824   7.533   7.604   1.921
  190POPI    H222825   7.632   7.621   1.968
  190POPI    O222826   7.449   7.714   1.953
  190POPI   HO222827   7.415   7.687   2.039
  190POPI   C1322828   7.553   7.588   1.771
  190POPI    H322829   7.614   7.496   1.755
  190POPI    O322830   7.628   7.697   1.715
  190POPI   HO322831   7.721   7.681   1.728
  190POPI   C1422832   7.419   7.563   1.704
  190POPI    H422833   7.351   7.647   1.730
  190POPI    O422834   7.426   7.561   1.561
  190POPI   HO422835   7.374   7.636   1.530
  190POPI   C1522836   7.356   7.436   1.760
  190POPI    H522837   7.426   7.352   1.741
  190POPI    O522838   7.234   7.406   1.691
  190POPI   HO522839   7.253   7.424   1.598
  190POPI   C1622840   7.336   7.449   1.911
  190POPI    H622841   7.266   7.532   1.931
  190POPI    O622842   7.281   7.330   1.966
  190POPI   HO622843   7.312   7.322   2.056
  190POPI   C1122844   7.469   7.479   1.980
  190POPI    H122845   7.536   7.392   1.963
  190POPI     P22846   7.561   7.463   2.230
  190POPI   O1322847   7.682   7.537   2.190
  190POPI   O1422848   7.567   7.316   2.239
  190POPI   O1222849   7.443   7.500   2.120
  190POPI   O1122850   7.502   7.522   2.364
  190POPI    C122851   7.447   7.652   2.379
  190POPI    HA22852   7.336   7.643   2.371
  190POPI    HB22853   7.481   7.723   2.300
  190POPI    C222854   7.480   7.715   2.518
  190POPI    HS22855   7.566   7.784   2.507
  190POPI   O2122856   7.509   7.613   2.615
  190POPI   C2122857   7.635   7.574   2.618
  190POPI   O2222858   7.726   7.618   2.550
  190POPI   C2222859   7.648   7.467   2.726
  190POPI   H2R22860   7.625   7.370   2.678
  190POPI   H2S22861   7.571   7.487   2.804
  190POPI    C322862   7.362   7.803   2.572
  190POPI    HX22863   7.372   7.904   2.529
  190POPI    HY22864   7.267   7.760   2.535
  190POPI   O3122865   7.354   7.806   2.717
  190POPI   C3122866   7.442   7.884   2.776
  190POPI   O3222867   7.520   7.957   2.718
  190POPI   C3222868   7.437   7.864   2.928
  190POPI   H2X22869   7.539   7.889   2.966
  190POPI   H2Y22870   7.424   7.756   2.950
  190POPI   C2322871   7.787   7.465   2.790
  190POPI   H3R22872   7.865   7.458   2.712
  190POPI   H3S22873   7.796   7.374   2.854
  190POPI   C2422874   7.816   7.585   2.881
  190POPI   H4R22875   7.797   7.680   2.828
  190POPI   H4S22876   7.924   7.582   2.907
  190POPI   C2522877   7.736   7.581   3.012
  190POPI   H5R22878   7.727   7.475   3.045
  190POPI   H5S22879   7.634   7.620   2.994
  190POPI   C2622880   7.805   7.660   3.124
  190POPI   H6R22881   7.833   7.760   3.085
  190POPI   H6S22882   7.900   7.609   3.152
  190POPI   C2722883   7.718   7.678   3.249
  190POPI   H7R22884   7.701   7.579   3.297
  190POPI   H7S22885   7.620   7.719   3.217
  190POPI   C2822886   7.778   7.774   3.353
  190POPI   H8R22887   7.694   7.825   3.406
  190POPI   H8S22888   7.834   7.853   3.297
  190POPI   C2922889   7.871   7.707   3.450
  190POPI   H9122890   7.975   7.698   3.415
  190POPI  C21022891   7.838   7.660   3.572
  190POPI  H10122892   7.917   7.614   3.632
  190POPI  C21122893   7.703   7.663   3.639
  190POPI  H11R22894   7.633   7.592   3.591
  190POPI  H11S22895   7.658   7.764   3.634
  190POPI  C21222896   7.722   7.623   3.787
  190POPI  H12R22897   7.809   7.678   3.830
  190POPI  H12S22898   7.747   7.514   3.792
  190POPI  C21322899   7.601   7.649   3.879
  190POPI  H13R22900   7.511   7.600   3.836
  190POPI  H13S22901   7.582   7.759   3.883
  190POPI  C21422902   7.627   7.595   4.021
  190POPI  H14R22903   7.734   7.567   4.027
  190POPI  H14S22904   7.568   7.501   4.033
  190POPI  C21522905   7.598   7.689   4.138
  190POPI  H15R22906   7.492   7.723   4.142
  190POPI  H15S22907   7.659   7.781   4.119
  190POPI  C21622908   7.645   7.631   4.274
  190POPI  H16R22909   7.687   7.716   4.331
  190POPI  H16S22910   7.725   7.556   4.257
  190POPI  C21722911   7.544   7.578   4.377
  190POPI  H17R22912   7.598   7.513   4.449
  190POPI  H17S22913   7.466   7.513   4.331
  190POPI  C21822914   7.481   7.693   4.456
  190POPI  H18R22915   7.557   7.739   4.523
  190POPI  H18S22916   7.444   7.772   4.387
  190POPI  H18T22917   7.397   7.658   4.519
  190POPI   C3322918   7.335   7.953   3.005
  190POPI   H3X22919   7.291   8.028   2.936
  190POPI   H3Y22920   7.393   8.012   3.080
  190POPI   C3422921   7.221   7.879   3.078
  190POPI   H4X22922   7.135   7.949   3.088
  190POPI   H4Y22923   7.254   7.852   3.180
  190POPI   C3522924   7.179   7.750   3.006
  190POPI   H5X22925   7.247   7.670   3.043
  190POPI   H5Y22926   7.195   7.764   2.897
  190POPI   C3622927   7.035   7.700   3.019
  190POPI   H6X22928   7.010   7.638   2.930
  190POPI   H6Y22929   6.967   7.788   3.018
  190POPI   C3722930   7.003   7.615   3.143
  190POPI   H7X22931   6.892   7.610   3.134
  190POPI   H7Y22932   7.028   7.673   3.235
  190POPI   C3822933   7.041   7.465   3.150
  190POPI   H8X22934   7.127   7.443   3.084
  190POPI   H8Y22935   6.958   7.407   3.105
  190POPI   C3922936   7.069   7.399   3.288
  190POPI   H9X22937   7.172   7.358   3.286
  190POPI   H9Y22938   7.000   7.313   3.295
  190POPI  C31022939   7.053   7.480   3.418
  190POPI  H10X22940   7.063   7.407   3.501
  190POPI  H10Y22941   6.951   7.524   3.424
  190POPI  C31122942   7.160   7.588   3.439
  190POPI  H11X22943   7.119   7.689   3.415
  190POPI  H11Y22944   7.244   7.569   3.369
  190POPI  C31222945   7.217   7.592   3.582
  190POPI  H12X22946   7.318   7.640   3.577
  190POPI  H12Y22947   7.232   7.490   3.622
  190POPI  C31322948   7.131   7.674   3.677
  190POPI  H13X22949   7.080   7.754   3.620
  190POPI  H13Y22950   7.199   7.720   3.751
  190POPI  C31422951   7.029   7.592   3.755
  190POPI  H14X22952   7.004   7.497   3.703
  190POPI  H14Y22953   6.934   7.651   3.763
  190POPI  C31522954   7.081   7.566   3.895
  190POPI  H15X22955   7.118   7.660   3.941
  190POPI  H15Y22956   7.168   7.497   3.884
  190POPI  C31622957   6.978   7.505   3.986
  190POPI  H16X22958   6.907   7.583   4.022
  190POPI  H16Y22959   6.921   7.425   3.932
  190POPI  H16Z22960   7.022   7.459   4.077
  191PSM      N22961   4.365   5.118   6.473
  191PSM    C1522962   4.274   5.006   6.435
  191PSM   H15A22963   4.312   4.912   6.469
  191PSM   H15B22964   4.175   5.022   6.476
  191PSM   H15C22965   4.266   5.001   6.327
  191PSM    C1422966   4.314   5.248   6.418
  191PSM   H14A22967   4.385   5.325   6.444
  191PSM   H14B22968   4.314   5.247   6.310
  191PSM   H14C22969   4.217   5.275   6.456
  191PSM    C1322970   4.371   5.134   6.622
  191PSM   H13A22971   4.437   5.216   6.646
  191PSM   H13B22972   4.275   5.156   6.664
  191PSM   H13C22973   4.412   5.046   6.670
  191PSM    C1222974   4.505   5.090   6.418
  191PSM   H12A22975   4.537   4.991   6.448
  191PSM   H12B22976   4.502   5.092   6.310
  191PSM    C1122977   4.620   5.185   6.460
  191PSM   H11A22978   4.631   5.184   6.571
  191PSM   H11B22979   4.715   5.146   6.420
  191PSM      P22980   4.623   5.362   6.268
  191PSM    O1322981   4.651   5.507   6.270
  191PSM    O1422982   4.720   5.270   6.205
  191PSM    O1122983   4.480   5.332   6.207
  191PSM    O1222984   4.597   5.319   6.418
  191PSM    C1S22985   4.432   5.403   6.092
  191PSM    H1S22986   4.322   5.415   6.098
  191PSM    H1T22987   4.473   5.506   6.089
  191PSM     NF22988   4.431   5.415   5.847
  191PSM    HNF22989   4.361   5.387   5.781
  191PSM    C2S22990   4.464   5.328   5.959
  191PSM    H2S22991   4.573   5.307   5.956
  191PSM    C3S22992   4.388   5.192   5.954
  191PSM    H3S22993   4.279   5.211   5.966
  191PSM     O322994   4.425   5.104   6.060
  191PSM    HO322995   4.482   5.158   6.115
  191PSM    C4S22996   4.414   5.124   5.822
  191PSM    H4S22997   4.518   5.090   5.810
  191PSM    C5S22998   4.325   5.104   5.722
  191PSM    H5S22999   4.221   5.139   5.732
  191PSM    C6S23000   4.360   5.035   5.593
  191PSM    H6S23001   4.465   4.997   5.597
  191PSM    H6T23002   4.296   4.945   5.578
  191PSM    C7S23003   4.352   5.124   5.467
  191PSM    H7S23004   4.402   5.222   5.483
  191PSM    H7T23005   4.411   5.074   5.387
  191PSM    C8S23006   4.210   5.143   5.412
  191PSM    H8S23007   4.148   5.057   5.444
  191PSM    H8T23008   4.166   5.236   5.455
  191PSM    C9S23009   4.203   5.148   5.258
  191PSM    H9S23010   4.241   5.052   5.218
  191PSM    H9T23011   4.096   5.156   5.227
  191PSM   C10S23012   4.281   5.264   5.192
  191PSM   H10S23013   4.234   5.360   5.224
  191PSM   H10T23014   4.385   5.265   5.230
  191PSM   C11S23015   4.285   5.260   5.038
  191PSM   H11S23016   4.325   5.358   5.003
  191PSM   H11T23017   4.357   5.182   5.005
  191PSM   C12S23018   4.148   5.235   4.971
  191PSM   H12S23019   4.121   5.128   4.980
  191PSM   H12T23020   4.074   5.293   5.030
  191PSM   C13S23021   4.136   5.282   4.825
  191PSM   H13S23022   4.030   5.306   4.806
  191PSM   H13T23023   4.196   5.375   4.812
  191PSM   C14S23024   4.181   5.182   4.718
  191PSM   H14S23025   4.290   5.169   4.731
  191PSM   H14T23026   4.132   5.083   4.736
  191PSM   C15S23027   4.155   5.225   4.572
  191PSM   H15S23028   4.192   5.146   4.502
  191PSM   H15T23029   4.045   5.231   4.558
  191PSM   C16S23030   4.213   5.361   4.529
  191PSM   H16S23031   4.163   5.391   4.434
  191PSM   H16T23032   4.187   5.437   4.606
  191PSM   C17S23033   4.364   5.365   4.504
  191PSM   H17S23034   4.418   5.331   4.595
  191PSM   H17T23035   4.387   5.294   4.422
  191PSM   C18S23036   4.416   5.504   4.465
  191PSM   H18S23037   4.364   5.540   4.374
  191PSM   H18T23038   4.399   5.577   4.547
  191PSM   H18U23039   4.525   5.501   4.444
  191PSM    C1F23040   4.502   5.525   5.828
  191PSM     OF23041   4.606   5.542   5.890
  191PSM    C2F23042   4.451   5.624   5.728
  191PSM    H2F23043   4.403   5.709   5.781
  191PSM    H2G23044   4.375   5.575   5.663
  191PSM    C3F23045   4.566   5.675   5.640
  191PSM    H3F23046   4.632   5.742   5.700
  191PSM    H3G23047   4.524   5.736   5.558
  191PSM    C4F23048   4.652   5.561   5.583
  191PSM    H4F23049   4.588   5.480   5.544
  191PSM    H4G23050   4.714   5.519   5.665
  191PSM    C5F23051   4.746   5.611   5.475
  191PSM    H5F23052   4.836   5.546   5.471
  191PSM    H5G23053   4.781   5.713   5.502
  191PSM    C6F23054   4.682   5.614   5.337
  191PSM    H6F23055   4.754   5.666   5.270
  191PSM    H6G23056   4.588   5.673   5.340
  191PSM    C7F23057   4.655   5.476   5.279
  191PSM    H7F23058   4.604   5.497   5.182
  191PSM    H7G23059   4.583   5.418   5.340
  191PSM    C8F23060   4.784   5.394   5.260
  191PSM    H8F23061   4.813   5.346   5.356
  191PSM    H8G23062   4.866   5.465   5.233
  191PSM    C9F23063   4.777   5.290   5.148
  191PSM    H9F23064   4.709   5.206   5.177
  191PSM    H9G23065   4.879   5.247   5.133
  191PSM   C10F23066   4.727   5.355   5.019
  191PSM   H10F23067   4.779   5.453   5.007
  191PSM   H10G23068   4.618   5.372   5.027
  191PSM   C11F23069   4.749   5.275   4.891
  191PSM   H11F23070   4.685   5.320   4.812
  191PSM   H11G23071   4.717   5.170   4.905
  191PSM   C12F23072   4.893   5.277   4.841
  191PSM   H12F23073   4.955   5.220   4.913
  191PSM   H12G23074   4.934   5.380   4.840
  191PSM   C13F23075   4.895   5.216   4.700
  191PSM   H13F23076   4.796   5.167   4.685
  191PSM   H13G23077   4.968   5.135   4.684
  191PSM   C14F23078   4.915   5.320   4.592
  191PSM   H14F23079   5.022   5.327   4.562
  191PSM   H14G23080   4.886   5.416   4.640
  191PSM   C15F23081   4.825   5.289   4.474
  191PSM   H15F23082   4.726   5.258   4.514
  191PSM   H15G23083   4.871   5.200   4.426
  191PSM   C16F23084   4.801   5.398   4.369
  191PSM   H16F23085   4.765   5.355   4.274
  191PSM   H16G23086   4.722   5.468   4.404
  191PSM   H16H23087   4.895   5.455   4.350
  192PSM      N23088   2.223   5.196   6.400
  192PSM    C1523089   2.182   5.333   6.356
  192PSM   H15A23090   2.238   5.369   6.271
  192PSM   H15B23091   2.077   5.339   6.328
  192PSM   H15C23092   2.198   5.405   6.434
  192PSM    C1423093   2.367   5.204   6.443
  192PSM   H14A23094   2.382   5.269   6.528
  192PSM   H14B23095   2.405   5.106   6.468
  192PSM   H14C23096   2.430   5.242   6.365
  192PSM    C1323097   2.139   5.156   6.517
  192PSM   H13A23098   2.147   5.229   6.596
  192PSM   H13B23099   2.035   5.147   6.489
  192PSM   H13C23100   2.172   5.060   6.553
  192PSM    C1223101   2.209   5.095   6.287
  192PSM   H12A23102   2.123   5.122   6.228
  192PSM   H12B23103   2.296   5.104   6.223
  192PSM    C1123104   2.195   4.945   6.327
  192PSM   H11A23105   2.098   4.931   6.379
  192PSM   H11B23106   2.188   4.883   6.235
  192PSM      P23107   2.442   4.858   6.359
  192PSM    O1323108   2.541   4.960   6.398
  192PSM    O1423109   2.464   4.722   6.413
  192PSM    O1123110   2.422   4.856   6.201
  192PSM    O1223111   2.300   4.902   6.413
  192PSM    C1S23112   2.481   4.955   6.115
  192PSM    H1S23113   2.481   5.057   6.161
  192PSM    H1T23114   2.587   4.928   6.098
  192PSM     NF23115   2.327   5.081   5.960
  192PSM    HNF23116   2.229   5.065   5.949
  192PSM    C2S23117   2.414   4.965   5.973
  192PSM    H2S23118   2.497   4.977   5.900
  192PSM    C3S23119   2.337   4.836   5.935
  192PSM    H3S23120   2.248   4.825   6.002
  192PSM     O323121   2.415   4.718   5.949
  192PSM    HO323122   2.459   4.730   6.033
  192PSM    C4S23123   2.290   4.850   5.792
  192PSM    H4S23124   2.374   4.861   5.721
  192PSM    C5S23125   2.165   4.851   5.744
  192PSM    H5S23126   2.079   4.837   5.812
  192PSM    C6S23127   2.133   4.867   5.598
  192PSM    H6S23128   2.218   4.913   5.543
  192PSM    H6T23129   2.119   4.767   5.551
  192PSM    C7S23130   2.007   4.952   5.568
  192PSM    H7S23131   1.923   4.916   5.633
  192PSM    H7T23132   2.026   5.058   5.594
  192PSM    C8S23133   1.958   4.941   5.422
  192PSM    H8S23134   1.939   4.834   5.401
  192PSM    H8T23135   1.860   4.994   5.414
  192PSM    C9S23136   2.053   4.998   5.316
  192PSM    H9S23137   2.051   5.109   5.325
  192PSM    H9T23138   2.157   4.964   5.334
  192PSM   C10S23139   2.016   4.962   5.172
  192PSM   H10S23140   2.060   4.863   5.145
  192PSM   H10T23141   1.905   4.949   5.167
  192PSM   C11S23142   2.058   5.067   5.067
  192PSM   H11S23143   1.997   5.052   4.975
  192PSM   H11T23144   2.033   5.168   5.107
  192PSM   C12S23145   2.206   5.064   5.030
  192PSM   H12S23146   2.231   5.156   4.973
  192PSM   H12T23147   2.266   5.065   5.123
  192PSM   C13S23148   2.246   4.942   4.945
  192PSM   H13S23149   2.357   4.944   4.932
  192PSM   H13T23150   2.222   4.849   5.003
  192PSM   C14S23151   2.181   4.933   4.806
  192PSM   H14S23152   2.220   4.842   4.755
  192PSM   H14T23153   2.071   4.921   4.815
  192PSM   C15S23154   2.213   5.056   4.721
  192PSM   H15S23155   2.150   5.141   4.753
  192PSM   H15T23156   2.319   5.084   4.740
  192PSM   C16S23157   2.197   5.036   4.570
  192PSM   H16S23158   2.095   5.000   4.547
  192PSM   H16T23159   2.207   5.135   4.520
  192PSM   C17S23160   2.299   4.939   4.507
  192PSM   H17S23161   2.254   4.838   4.513
  192PSM   H17T23162   2.308   4.964   4.399
  192PSM   C18S23163   2.442   4.935   4.564
  192PSM   H18S23164   2.492   5.034   4.554
  192PSM   H18T23165   2.442   4.907   4.671
  192PSM   H18U23166   2.504   4.861   4.508
  192PSM    C1F23167   2.377   5.204   5.943
  192PSM     OF23168   2.498   5.221   5.941
  192PSM    C2F23169   2.279   5.316   5.928
  192PSM    H2F23170   2.295   5.379   6.018
  192PSM    H2G23171   2.175   5.277   5.932
  192PSM    C3F23172   2.297   5.406   5.804
  192PSM    H3F23173   2.404   5.435   5.792
  192PSM    H3G23174   2.241   5.500   5.824
  192PSM    C4F23175   2.242   5.351   5.671
  192PSM    H4F23176   2.250   5.431   5.595
  192PSM    H4G23177   2.135   5.325   5.682
  192PSM    C5F23178   2.319   5.229   5.618
  192PSM    H5F23179   2.295   5.142   5.683
  192PSM    H5G23180   2.428   5.247   5.623
  192PSM    C6F23181   2.277   5.193   5.474
  192PSM    H6F23182   2.169   5.215   5.463
  192PSM    H6G23183   2.293   5.084   5.458
  192PSM    C7F23184   2.356   5.265   5.364
  192PSM    H7F23185   2.361   5.374   5.386
  192PSM    H7G23186   2.301   5.252   5.269
  192PSM    C8F23187   2.497   5.207   5.349
  192PSM    H8F23188   2.490   5.097   5.336
  192PSM    H8G23189   2.555   5.227   5.442
  192PSM    C9F23190   2.576   5.264   5.230
  192PSM    H9F23191   2.680   5.224   5.234
  192PSM    H9G23192   2.582   5.374   5.239
  192PSM   C10F23193   2.516   5.229   5.092
  192PSM   H10F23194   2.415   5.275   5.083
  192PSM   H10G23195   2.505   5.119   5.083
  192PSM   C11F23196   2.606   5.282   4.980
  192PSM   H11F23197   2.655   5.198   4.927
  192PSM   H11G23198   2.687   5.340   5.029
  192PSM   C12F23199   2.536   5.376   4.881
  192PSM   H12F23200   2.616   5.439   4.836
  192PSM   H12G23201   2.465   5.443   4.933
  192PSM   C13F23202   2.464   5.304   4.767
  192PSM   H13F23203   2.362   5.276   4.801
  192PSM   H13G23204   2.520   5.210   4.746
  192PSM   C14F23205   2.457   5.387   4.638
  192PSM   H14F23206   2.541   5.460   4.636
  192PSM   H14G23207   2.363   5.445   4.634
  192PSM   C15F23208   2.472   5.298   4.515
  192PSM   H15F23209   2.385   5.229   4.509
  192PSM   H15G23210   2.562   5.234   4.530
  192PSM   C16F23211   2.486   5.373   4.383
  192PSM   H16F23212   2.392   5.426   4.358
  192PSM   H16G23213   2.569   5.447   4.388
  192PSM   H16H23214   2.510   5.301   4.302
  193PSM      N23215   5.949   5.695   6.513
  193PSM    C1523216   6.069   5.605   6.517
  193PSM   H15A23217   6.069   5.537   6.433
  193PSM   H15B23218   6.160   5.663   6.513
  193PSM   H15C23219   6.071   5.546   6.607
  193PSM    C1423220   5.824   5.614   6.527
  193PSM   H14A23221   5.823   5.551   6.615
  193PSM   H14B23222   5.738   5.679   6.529
  193PSM   H14C23223   5.809   5.553   6.438
  193PSM    C1323224   5.954   5.791   6.627
  193PSM   H13A23225   5.956   5.740   6.722
  193PSM   H13B23226   6.041   5.855   6.620
  193PSM   H13C23227   5.866   5.855   6.626
  193PSM    C1223228   5.945   5.775   6.383
  193PSM   H12A23229   5.882   5.860   6.401
  193PSM   H12B23230   6.044   5.814   6.362
  193PSM    C1123231   5.886   5.707   6.257
  193PSM   H11A23232   5.910   5.768   6.168
  193PSM   H11B23233   5.934   5.608   6.242
  193PSM      P23234   5.650   5.817   6.280
  193PSM    O1323235   5.507   5.778   6.275
  193PSM    O1423236   5.689   5.892   6.401
  193PSM    O1123237   5.693   5.903   6.155
  193PSM    O1223238   5.744   5.690   6.268
  193PSM    C1S23239   5.598   5.950   6.059
  193PSM    H1S23240   5.510   5.883   6.048
  193PSM    H1T23241   5.560   6.050   6.091
  193PSM     NF23242   5.679   5.835   5.857
  193PSM    HNF23243   5.770   5.796   5.865
  193PSM    C2S23244   5.661   5.966   5.917
  193PSM    H2S23245   5.589   6.023   5.855
  193PSM    C3S23246   5.796   6.044   5.919
  193PSM    H3S23247   5.871   5.988   5.980
  193PSM     O323248   5.785   6.175   5.974
  193PSM    HO323249   5.698   6.180   6.014
  193PSM    C4S23250   5.845   6.054   5.776
  193PSM    H4S23251   5.810   6.143   5.722
  193PSM    C5S23252   5.928   5.966   5.716
  193PSM    H5S23253   5.965   5.881   5.775
  193PSM    C6S23254   5.981   5.969   5.575
  193PSM    H6S23255   6.091   5.977   5.581
  193PSM    H6T23256   5.962   5.870   5.527
  193PSM    C7S23257   5.933   6.078   5.475
  193PSM    H7S23258   5.898   6.170   5.526
  193PSM    H7T23259   6.020   6.109   5.414
  193PSM    C8S23260   5.828   6.028   5.375
  193PSM    H8S23261   5.833   5.917   5.367
  193PSM    H8T23262   5.727   6.053   5.415
  193PSM    C9S23263   5.847   6.083   5.233
  193PSM    H9S23264   5.754   6.062   5.176
  193PSM    H9T23265   5.860   6.194   5.234
  193PSM   C10S23266   5.963   6.016   5.158
  193PSM   H10S23267   6.057   6.073   5.171
  193PSM   H10T23268   5.979   5.916   5.204
  193PSM   C11S23269   5.934   5.992   5.009
  193PSM   H11S23270   5.825   5.976   4.994
  193PSM   H11T23271   5.963   6.081   4.949
  193PSM   C12S23272   6.004   5.866   4.958
  193PSM   H12S23273   6.114   5.872   4.974
  193PSM   H12T23274   5.968   5.780   5.019
  193PSM   C13S23275   5.975   5.835   4.811
  193PSM   H13S23276   5.867   5.850   4.792
  193PSM   H13T23277   6.030   5.906   4.745
  193PSM   C14S23278   6.013   5.691   4.776
  193PSM   H14S23279   6.123   5.682   4.778
  193PSM   H14T23280   5.972   5.624   4.855
  193PSM   C15S23281   5.960   5.643   4.641
  193PSM   H15S23282   5.849   5.657   4.638
  193PSM   H15T23283   6.006   5.704   4.560
  193PSM   C16S23284   5.991   5.496   4.619
  193PSM   H16S23285   6.101   5.482   4.630
  193PSM   H16T23286   5.941   5.437   4.698
  193PSM   C17S23287   5.947   5.441   4.482
  193PSM   H17S23288   5.922   5.334   4.495
  193PSM   H17T23289   5.855   5.493   4.450
  193PSM   C18S23290   6.055   5.450   4.374
  193PSM   H18S23291   6.078   5.556   4.351
  193PSM   H18T23292   6.149   5.400   4.406
  193PSM   H18U23293   6.021   5.400   4.281
  193PSM    C1F23294   5.583   5.767   5.799
  193PSM     OF23295   5.464   5.790   5.818
  193PSM    C2F23296   5.630   5.659   5.708
  193PSM    H2F23297   5.603   5.561   5.755
  193PSM    H2G23298   5.741   5.663   5.699
  193PSM    C3F23299   5.567   5.669   5.569
  193PSM    H3F23300   5.460   5.701   5.574
  193PSM    H3G23301   5.569   5.566   5.527
  193PSM    C4F23302   5.639   5.754   5.464
  193PSM    H4F23303   5.747   5.731   5.465
  193PSM    H4G23304   5.626   5.862   5.485
  193PSM    C5F23305   5.582   5.718   5.326
  193PSM    H5F23306   5.484   5.769   5.312
  193PSM    H5G23307   5.562   5.609   5.325
  193PSM    C6F23308   5.672   5.743   5.206
  193PSM    H6F23309   5.777   5.714   5.227
  193PSM    H6G23310   5.671   5.852   5.182
  193PSM    C7F23311   5.620   5.662   5.086
  193PSM    H7F23312   5.509   5.655   5.098
  193PSM    H7G23313   5.661   5.559   5.088
  193PSM    C8F23314   5.646   5.728   4.951
  193PSM    H8F23315   5.753   5.718   4.923
  193PSM    H8G23316   5.625   5.837   4.963
  193PSM    C9F23317   5.555   5.673   4.840
  193PSM    H9F23318   5.463   5.631   4.885
  193PSM    H9G23319   5.607   5.592   4.785
  193PSM   C10F23320   5.515   5.787   4.747
  193PSM   H10F23321   5.607   5.830   4.702
  193PSM   H10G23322   5.470   5.868   4.808
  193PSM   C11F23323   5.417   5.749   4.635
  193PSM   H11F23324   5.329   5.695   4.675
  193PSM   H11G23325   5.469   5.682   4.563
  193PSM   C12F23326   5.373   5.878   4.565
  193PSM   H12F23327   5.465   5.940   4.557
  193PSM   H12G23328   5.297   5.932   4.625
  193PSM   C13F23329   5.322   5.864   4.423
  193PSM   H13F23330   5.384   5.788   4.370
  193PSM   H13G23331   5.336   5.961   4.370
  193PSM   C14F23332   5.176   5.824   4.410
  193PSM   H14F23333   5.111   5.911   4.435
  193PSM   H14G23334   5.153   5.742   4.482
  193PSM   C15F23335   5.147   5.775   4.268
  193PSM   H15F23336   5.038   5.753   4.262
  193PSM   H15G23337   5.199   5.678   4.254
  193PSM   C16F23338   5.183   5.870   4.153
  193PSM   H16F23339   5.094   5.892   4.090
  193PSM   H16G23340   5.225   5.966   4.189
  193PSM   H16H23341   5.257   5.823   4.084
  194PSM      N23342   5.514   6.377   6.516
  194PSM    C1523343   5.494   6.427   6.656
  194PSM   H15A23344   5.520   6.531   6.663
  194PSM   H15B23345   5.391   6.419   6.687
  194PSM   H15C23346   5.556   6.373   6.726
  194PSM    C1423347   5.658   6.395   6.480
  194PSM   H14A23348   5.669   6.377   6.374
  194PSM   H14B23349   5.687   6.498   6.495
  194PSM   H14C23350   5.722   6.328   6.536
  194PSM    C1323351   5.478   6.232   6.504
  194PSM   H13A23352   5.378   6.211   6.539
  194PSM   H13B23353   5.481   6.200   6.401
  194PSM   H13C23354   5.548   6.169   6.558
  194PSM    C1223355   5.428   6.461   6.421
  194PSM   H12A23356   5.324   6.442   6.439
  194PSM   H12B23357   5.445   6.565   6.443
  194PSM    C1123358   5.456   6.445   6.269
  194PSM   H11A23359   5.456   6.338   6.242
  194PSM   H11B23360   5.372   6.491   6.213
  194PSM      P23361   5.610   6.658   6.241
  194PSM    O1323362   5.562   6.708   6.371
  194PSM    O1423363   5.753   6.681   6.210
  194PSM    O1123364   5.520   6.724   6.127
  194PSM    O1223365   5.581   6.503   6.231
  194PSM    C1S23366   5.467   6.649   6.017
  194PSM    H1S23367   5.510   6.547   6.008
  194PSM    H1T23368   5.357   6.638   6.029
  194PSM     NF23369   5.438   6.635   5.776
  194PSM    HNF23370   5.502   6.581   5.722
  194PSM    C2S23371   5.493   6.718   5.880
  194PSM    H2S23372   5.440   6.816   5.879
  194PSM    C3S23373   5.644   6.745   5.859
  194PSM    H3S23374   5.702   6.653   5.882
  194PSM     O323375   5.693   6.848   5.945
  194PSM    HO323376   5.635   6.843   6.021
  194PSM    C4S23377   5.668   6.786   5.716
  194PSM    H4S23378   5.639   6.890   5.693
  194PSM    C5S23379   5.718   6.707   5.618
  194PSM    H5S23380   5.748   6.604   5.641
  194PSM    C6S23381   5.741   6.751   5.475
  194PSM    H6S23382   5.727   6.860   5.463
  194PSM    H6T23383   5.847   6.731   5.451
  194PSM    C7S23384   5.656   6.684   5.365
  194PSM    H7S23385   5.707   6.709   5.269
  194PSM    H7T23386   5.660   6.573   5.376
  194PSM    C8S23387   5.510   6.731   5.350
  194PSM    H8S23388   5.452   6.704   5.440
  194PSM    H8T23389   5.509   6.842   5.341
  194PSM    C9S23390   5.444   6.671   5.224
  194PSM    H9S23391   5.499   6.709   5.136
  194PSM    H9T23392   5.455   6.561   5.226
  194PSM   C10S23393   5.294   6.705   5.207
  194PSM   H10S23394   5.238   6.667   5.295
  194PSM   H10T23395   5.284   6.816   5.210
  194PSM   C11S23396   5.227   6.651   5.078
  194PSM   H11S23397   5.203   6.544   5.093
  194PSM   H11T23398   5.131   6.705   5.064
  194PSM   C12S23399   5.312   6.664   4.951
  194PSM   H12S23400   5.357   6.765   4.947
  194PSM   H12T23401   5.396   6.591   4.958
  194PSM   C13S23402   5.238   6.640   4.817
  194PSM   H13S23403   5.201   6.535   4.813
  194PSM   H13T23404   5.150   6.708   4.811
  194PSM   C14S23405   5.329   6.668   4.696
  194PSM   H14S23406   5.353   6.777   4.695
  194PSM   H14T23407   5.424   6.612   4.712
  194PSM   C15S23408   5.279   6.629   4.556
  194PSM   H15S23409   5.242   6.524   4.557
  194PSM   H15T23410   5.192   6.693   4.530
  194PSM   C16S23411   5.382   6.648   4.442
  194PSM   H16S23412   5.329   6.619   4.349
  194PSM   H16T23413   5.406   6.757   4.434
  194PSM   C17S23414   5.513   6.567   4.446
  194PSM   H17S23415   5.562   6.582   4.545
  194PSM   H17T23416   5.489   6.459   4.436
  194PSM   C18S23417   5.617   6.595   4.337
  194PSM   H18S23418   5.575   6.662   4.259
  194PSM   H18T23419   5.707   6.646   4.379
  194PSM   H18U23420   5.652   6.501   4.289
  194PSM    C1F23421   5.309   6.625   5.747
  194PSM     OF23422   5.228   6.699   5.801
  194PSM    C2F23423   5.273   6.526   5.639
  194PSM    H2F23424   5.227   6.581   5.554
  194PSM    H2G23425   5.199   6.454   5.679
  194PSM    C3F23426   5.400   6.452   5.589
  194PSM    H3F23427   5.443   6.392   5.672
  194PSM    H3G23428   5.476   6.524   5.554
  194PSM    C4F23429   5.377   6.356   5.472
  194PSM    H4F23430   5.328   6.411   5.388
  194PSM    H4G23431   5.309   6.274   5.503
  194PSM    C5F23432   5.512   6.300   5.426
  194PSM    H5F23433   5.569   6.263   5.513
  194PSM    H5G23434   5.571   6.382   5.379
  194PSM    C6F23435   5.500   6.187   5.324
  194PSM    H6F23436   5.459   6.095   5.372
  194PSM    H6G23437   5.602   6.164   5.287
  194PSM    C7F23438   5.416   6.224   5.203
  194PSM    H7F23439   5.446   6.325   5.168
  194PSM    H7G23440   5.309   6.227   5.231
  194PSM    C8F23441   5.436   6.123   5.089
  194PSM    H8F23442   5.423   6.020   5.129
  194PSM    H8G23443   5.540   6.132   5.050
  194PSM    C9F23444   5.336   6.145   4.976
  194PSM    H9F23445   5.235   6.122   5.015
  194PSM    H9G23446   5.359   6.073   4.895
  194PSM   C10F23447   5.335   6.288   4.919
  194PSM   H10F23448   5.304   6.359   4.999
  194PSM   H10G23449   5.254   6.293   4.843
  194PSM   C11F23450   5.468   6.336   4.859
  194PSM   H11F23451   5.540   6.355   4.941
  194PSM   H11G23452   5.449   6.433   4.810
  194PSM   C12F23453   5.536   6.244   4.756
  194PSM   H12F23454   5.584   6.159   4.809
  194PSM   H12G23455   5.616   6.302   4.707
  194PSM   C13F23456   5.445   6.186   4.646
  194PSM   H13F23457   5.385   6.104   4.691
  194PSM   H13G23458   5.512   6.143   4.569
  194PSM   C14F23459   5.346   6.283   4.581
  194PSM   H14F23460   5.396   6.382   4.583
  194PSM   H14G23461   5.255   6.294   4.644
  194PSM   C15F23462   5.297   6.246   4.439
  194PSM   H15F23463   5.232   6.329   4.404
  194PSM   H15G23464   5.232   6.156   4.449
  194PSM   C16F23465   5.402   6.218   4.331
  194PSM   H16F23466   5.468   6.134   4.359
  194PSM   H16G23467   5.350   6.191   4.236
  194PSM   H16H23468   5.465   6.307   4.309
  195PSM      N23469   1.076   2.322   6.559
  195PSM    C1523470   1.131   2.183   6.558
  195PSM   H15A23471   1.233   2.180   6.595
  195PSM   H15B23472   1.072   2.118   6.621
  195PSM   H15C23473   1.131   2.143   6.458
  195PSM    C1423474   0.938   2.318   6.499
  195PSM   H14A23475   0.890   2.415   6.503
  195PSM   H14B23476   0.944   2.295   6.393
  195PSM   H14C23477   0.873   2.248   6.548
  195PSM    C1323478   1.062   2.370   6.700
  195PSM   H13A23479   1.157   2.372   6.752
  195PSM   H13B23480   1.019   2.469   6.702
  195PSM   H13C23481   0.996   2.305   6.755
  195PSM    C1223482   1.167   2.415   6.480
  195PSM   H12A23483   1.132   2.517   6.492
  195PSM   H12B23484   1.267   2.412   6.521
  195PSM    C1123485   1.176   2.394   6.327
  195PSM   H11A23486   1.260   2.454   6.285
  195PSM   H11B23487   1.198   2.288   6.304
  195PSM      P23488   1.001   2.580   6.269
  195PSM    O1323489   0.862   2.575   6.320
  195PSM    O1423490   1.097   2.666   6.345
  195PSM    O1123491   1.004   2.622   6.118
  195PSM    O1223492   1.054   2.431   6.265
  195PSM    C1S23493   1.026   2.526   6.013
  195PSM    H1S23494   1.132   2.493   6.010
  195PSM    H1T23495   0.962   2.437   6.030
  195PSM     NF23496   0.992   2.489   5.763
  195PSM    HNF23497   1.026   2.523   5.675
  195PSM    C2S23498   0.990   2.586   5.872
  195PSM    H2S23499   0.886   2.624   5.880
  195PSM    C3S23500   1.085   2.706   5.841
  195PSM    H3S23501   1.186   2.666   5.819
  195PSM     O323502   1.100   2.794   5.952
  195PSM    HO323503   1.057   2.746   6.022
  195PSM    C4S23504   1.036   2.789   5.727
  195PSM    H4S23505   0.937   2.834   5.744
  195PSM    C5S23506   1.101   2.820   5.614
  195PSM    H5S23507   1.204   2.784   5.597
  195PSM    C6S23508   1.042   2.909   5.508
  195PSM    H6S23509   0.993   2.997   5.555
  195PSM    H6T23510   1.122   2.949   5.443
  195PSM    C7S23511   0.937   2.839   5.419
  195PSM    H7S23512   0.850   2.804   5.479
  195PSM    H7T23513   0.899   2.915   5.347
  195PSM    C8S23514   0.997   2.723   5.339
  195PSM    H8S23515   1.105   2.743   5.326
  195PSM    H8T23516   0.987   2.628   5.396
  195PSM    C9S23517   0.933   2.708   5.200
  195PSM    H9S23518   0.826   2.682   5.212
  195PSM    H9T23519   0.938   2.806   5.146
  195PSM   C10S23520   1.002   2.601   5.114
  195PSM   H10S23521   1.002   2.506   5.171
  195PSM   H10T23522   0.940   2.586   5.022
  195PSM   C11S23523   1.146   2.635   5.071
  195PSM   H11S23524   1.143   2.715   4.994
  195PSM   H11T23525   1.203   2.675   5.158
  195PSM   C12S23526   1.223   2.513   5.019
  195PSM   H12S23527   1.329   2.542   5.003
  195PSM   H12T23528   1.220   2.434   5.096
  195PSM   C13S23529   1.165   2.457   4.888
  195PSM   H13S23530   1.055   2.456   4.897
  195PSM   H13T23531   1.192   2.524   4.804
  195PSM   C14S23532   1.209   2.313   4.857
  195PSM   H14S23533   1.320   2.307   4.854
  195PSM   H14T23534   1.175   2.245   4.938
  195PSM   C15S23535   1.152   2.264   4.723
  195PSM   H15S23536   1.170   2.341   4.645
  195PSM   H15T23537   1.207   2.172   4.692
  195PSM   C16S23538   1.002   2.235   4.733
  195PSM   H16S23539   0.984   2.161   4.814
  195PSM   H16T23540   0.952   2.329   4.763
  195PSM   C17S23541   0.935   2.189   4.603
  195PSM   H17S23542   0.825   2.188   4.621
  195PSM   H17T23543   0.955   2.265   4.525
  195PSM   C18S23544   0.978   2.052   4.554
  195PSM   H18S23545   0.945   2.035   4.449
  195PSM   H18T23546   1.088   2.042   4.558
  195PSM   H18U23547   0.935   1.971   4.617
  195PSM    C1F23548   0.922   2.375   5.761
  195PSM     OF23549   0.923   2.295   5.854
  195PSM    C2F23550   0.847   2.346   5.635
  195PSM    H2F23551   0.885   2.251   5.593
  195PSM    H2G23552   0.866   2.427   5.561
  195PSM    C3F23553   0.695   2.337   5.661
  195PSM    H3F23554   0.661   2.428   5.717
  195PSM    H3G23555   0.673   2.249   5.725
  195PSM    C4F23556   0.614   2.329   5.531
  195PSM    H4F23557   0.639   2.418   5.469
  195PSM    H4G23558   0.505   2.336   5.555
  195PSM    C5F23559   0.639   2.201   5.452
  195PSM    H5F23560   0.583   2.118   5.500
  195PSM    H5G23561   0.747   2.174   5.454
  195PSM    C6F23562   0.599   2.212   5.305
  195PSM    H6F23563   0.492   2.241   5.295
  195PSM    H6G23564   0.609   2.111   5.261
  195PSM    C7F23565   0.688   2.309   5.224
  195PSM    H7F23566   0.784   2.326   5.277
  195PSM    H7G23567   0.637   2.407   5.214
  195PSM    C8F23568   0.716   2.249   5.087
  195PSM    H8F23569   0.617   2.216   5.047
  195PSM    H8G23570   0.779   2.158   5.101
  195PSM    C9F23571   0.782   2.338   4.981
  195PSM    H9F23572   0.798   2.272   4.893
  195PSM    H9G23573   0.882   2.373   5.015
  195PSM   C10F23574   0.694   2.455   4.934
  195PSM   H10F23575   0.708   2.545   4.997
  195PSM   H10G23576   0.589   2.421   4.948
  195PSM   C11F23577   0.702   2.488   4.783
  195PSM   H11F23578   0.608   2.538   4.755
  195PSM   H11G23579   0.707   2.393   4.725
  195PSM   C12F23580   0.818   2.580   4.743
  195PSM   H12F23581   0.915   2.529   4.761
  195PSM   H12G23582   0.816   2.672   4.805
  195PSM   C13F23583   0.809   2.619   4.595
  195PSM   H13F23584   0.754   2.715   4.585
  195PSM   H13G23585   0.750   2.542   4.540
  195PSM   C14F23586   0.945   2.632   4.526
  195PSM   H14F23587   0.988   2.531   4.511
  195PSM   H14G23588   1.015   2.689   4.591
  195PSM   C15F23589   0.933   2.704   4.391
  195PSM   H15F23590   0.904   2.810   4.408
  195PSM   H15G23591   0.850   2.657   4.333
  195PSM   C16F23592   1.060   2.698   4.306
  195PSM   H16F23593   1.045   2.754   4.210
  195PSM   H16G23594   1.146   2.743   4.360
  195PSM   H16H23595   1.084   2.593   4.281
  196PSM      N23596   4.578   1.950   1.993
  196PSM    C1523597   4.592   1.845   1.887
  196PSM   H15A23598   4.634   1.885   1.795
  196PSM   H15B23599   4.659   1.766   1.920
  196PSM   H15C23600   4.498   1.798   1.864
  196PSM    C1423601   4.522   1.886   2.117
  196PSM   H14A23602   4.515   1.959   2.196
  196PSM   H14B23603   4.424   1.843   2.100
  196PSM   H14C23604   4.584   1.805   2.152
  196PSM    C1323605   4.715   2.002   2.026
  196PSM   H13A23606   4.708   2.075   2.106
  196PSM   H13B23607   4.779   1.922   2.061
  196PSM   H13C23608   4.761   2.051   1.942
  196PSM    C1223609   4.487   2.063   1.944
  196PSM   H12A23610   4.532   2.106   1.857
  196PSM   H12B23611   4.393   2.019   1.913
  196PSM    C1123612   4.454   2.181   2.041
  196PSM   H11A23613   4.381   2.247   1.990
  196PSM   H11B23614   4.401   2.141   2.129
  196PSM      P23615   4.619   2.280   2.223
  196PSM    O1323616   4.767   2.273   2.225
  196PSM    O1423617   4.554   2.401   2.276
  196PSM    O1123618   4.558   2.152   2.293
  196PSM    O1223619   4.571   2.257   2.072
  196PSM    C1S23620   4.625   2.080   2.397
  196PSM    H1S23621   4.586   1.976   2.402
  196PSM    H1T23622   4.734   2.071   2.377
  196PSM     NF23623   4.680   2.067   2.636
  196PSM    HNF23624   4.631   2.004   2.695
  196PSM    C2S23625   4.602   2.142   2.539
  196PSM    H2S23626   4.640   2.247   2.538
  196PSM    C3S23627   4.450   2.145   2.573
  196PSM    H3S23628   4.411   2.041   2.570
  196PSM     O323629   4.368   2.219   2.484
  196PSM    HO323630   4.426   2.241   2.410
  196PSM    C4S23631   4.430   2.201   2.712
  196PSM    H4S23632   4.480   2.298   2.730
  196PSM    C5S23633   4.359   2.142   2.809
  196PSM    H5S23634   4.315   2.043   2.789
  196PSM    C6S23635   4.336   2.192   2.950
  196PSM    H6S23636   4.242   2.250   2.955
  196PSM    H6T23637   4.323   2.104   3.016
  196PSM    C7S23638   4.449   2.277   3.011
  196PSM    H7S23639   4.548   2.228   2.995
  196PSM    H7T23640   4.452   2.376   2.961
  196PSM    C8S23641   4.429   2.296   3.162
  196PSM    H8S23642   4.323   2.318   3.183
  196PSM    H8T23643   4.457   2.201   3.213
  196PSM    C9S23644   4.514   2.410   3.217
  196PSM    H9S23645   4.621   2.389   3.195
  196PSM    H9T23646   4.485   2.502   3.161
  196PSM   C10S23647   4.498   2.439   3.368
  196PSM   H10S23648   4.512   2.548   3.383
  196PSM   H10T23649   4.396   2.413   3.401
  196PSM   C11S23650   4.604   2.368   3.454
  196PSM   H11S23651   4.591   2.258   3.444
  196PSM   H11T23652   4.705   2.393   3.415
  196PSM   C12S23653   4.600   2.406   3.603
  196PSM   H12S23654   4.607   2.516   3.614
  196PSM   H12T23655   4.502   2.374   3.646
  196PSM   C13S23656   4.715   2.340   3.681
  196PSM   H13S23657   4.719   2.232   3.653
  196PSM   H13T23658   4.810   2.387   3.649
  196PSM   C14S23659   4.703   2.346   3.834
  196PSM   H14S23660   4.689   2.452   3.866
  196PSM   H14T23661   4.612   2.290   3.865
  196PSM   C15S23662   4.827   2.287   3.903
  196PSM   H15S23663   4.859   2.196   3.848
  196PSM   H15T23664   4.912   2.359   3.891
  196PSM   C16S23665   4.808   2.253   4.052
  196PSM   H16S23666   4.907   2.256   4.103
  196PSM   H16T23667   4.743   2.328   4.101
  196PSM   C17S23668   4.750   2.113   4.070
  196PSM   H17S23669   4.641   2.122   4.089
  196PSM   H17T23670   4.764   2.063   3.972
  196PSM   C18S23671   4.810   2.018   4.174
  196PSM   H18S23672   4.787   1.913   4.147
  196PSM   H18T23673   4.921   2.028   4.177
  196PSM   H18U23674   4.769   2.035   4.275
  196PSM    C1F23675   4.813   2.072   2.639
  196PSM     OF23676   4.876   2.143   2.561
  196PSM    C2F23677   4.880   1.981   2.737
  196PSM    H2F23678   4.929   1.899   2.681
  196PSM    H2G23679   4.802   1.936   2.803
  196PSM    C3F23680   4.986   2.055   2.822
  196PSM    H3F23681   4.944   2.146   2.871
  196PSM    H3G23682   5.064   2.089   2.750
  196PSM    C4F23683   5.056   1.966   2.925
  196PSM    H4F23684   5.160   2.003   2.937
  196PSM    H4G23685   5.065   1.863   2.883
  196PSM    C5F23686   4.999   1.961   3.069
  196PSM    H5F23687   5.055   2.034   3.129
  196PSM    H5G23688   5.022   1.861   3.111
  196PSM    C6F23689   4.848   1.989   3.085
  196PSM    H6F23690   4.793   1.933   3.006
  196PSM    H6G23691   4.828   2.097   3.067
  196PSM    C7F23692   4.791   1.946   3.221
  196PSM    H7F23693   4.793   2.031   3.292
  196PSM    H7G23694   4.851   1.863   3.264
  196PSM    C8F23695   4.645   1.904   3.213
  196PSM    H8F23696   4.638   1.798   3.179
  196PSM    H8G23697   4.600   1.973   3.138
  196PSM    C9F23698   4.561   1.920   3.340
  196PSM    H9F23699   4.454   1.918   3.311
  196PSM    H9G23700   4.583   2.021   3.380
  196PSM   C10F23701   4.588   1.817   3.450
  196PSM   H10F23702   4.582   1.875   3.545
  196PSM   H10G23703   4.693   1.785   3.438
  196PSM   C11F23704   4.496   1.694   3.471
  196PSM   H11F23705   4.565   1.608   3.484
  196PSM   H11G23706   4.436   1.666   3.382
  196PSM   C12F23707   4.419   1.694   3.605
  196PSM   H12F23708   4.473   1.761   3.674
  196PSM   H12G23709   4.427   1.593   3.649
  196PSM   C13F23710   4.271   1.734   3.609
  196PSM   H13F23711   4.214   1.670   3.537
  196PSM   H13G23712   4.259   1.840   3.579
  196PSM   C14F23713   4.210   1.716   3.750
  196PSM   H14F23714   4.282   1.660   3.813
  196PSM   H14G23715   4.120   1.652   3.739
  196PSM   C15F23716   4.169   1.846   3.820
  196PSM   H15F23717   4.067   1.874   3.786
  196PSM   H15G23718   4.236   1.927   3.785
  196PSM   C16F23719   4.172   1.844   3.973
  196PSM   H16F23720   4.130   1.937   4.016
  196PSM   H16G23721   4.112   1.757   4.010
  196PSM   H16H23722   4.275   1.832   4.013
  197PSM      N23723   5.840   3.068   2.056
  197PSM    C1523724   5.864   2.932   2.117
  197PSM   H15A23725   5.771   2.896   2.158
  197PSM   H15B23726   5.901   2.861   2.045
  197PSM   H15C23727   5.931   2.938   2.201
  197PSM    C1423728   5.966   3.122   2.001
  197PSM   H14A23729   6.011   3.052   1.932
  197PSM   H14B23730   5.949   3.214   1.946
  197PSM   H14C23731   6.038   3.139   2.080
  197PSM    C1323732   5.738   3.048   1.949
  197PSM   H13A23733   5.648   3.010   1.996
  197PSM   H13B23734   5.713   3.140   1.898
  197PSM   H13C23735   5.771   2.974   1.877
  197PSM    C1223736   5.787   3.157   2.168
  197PSM   H12A23737   5.828   3.120   2.261
  197PSM   H12B23738   5.822   3.258   2.155
  197PSM    C1123739   5.635   3.160   2.190
  197PSM   H11A23740   5.612   3.211   2.286
  197PSM   H11B23741   5.586   3.217   2.108
  197PSM      P23742   5.437   2.990   2.202
  197PSM    O1323743   5.359   3.116   2.205
  197PSM    O1423744   5.412   2.904   2.084
  197PSM    O1123745   5.431   2.911   2.339
  197PSM    O1223746   5.589   3.026   2.194
  197PSM    C1S23747   5.547   2.846   2.396
  197PSM    H1S23748   5.517   2.745   2.432
  197PSM    H1T23749   5.628   2.829   2.322
  197PSM     NF23750   5.737   2.866   2.553
  197PSM    HNF23751   5.737   2.791   2.618
  197PSM    C2S23752   5.607   2.924   2.518
  197PSM    H2S23753   5.622   3.030   2.489
  197PSM    C3S23754   5.505   2.920   2.635
  197PSM    H3S23755   5.477   2.814   2.655
  197PSM     O323756   5.385   2.990   2.605
  197PSM    HO323757   5.377   2.984   2.510
  197PSM    C4S23758   5.569   2.974   2.762
  197PSM    H4S23759   5.620   2.897   2.822
  197PSM    C5S23760   5.566   3.101   2.810
  197PSM    H5S23761   5.511   3.176   2.752
  197PSM    C6S23762   5.630   3.151   2.937
  197PSM    H6S23763   5.711   3.222   2.909
  197PSM    H6T23764   5.556   3.210   2.994
  197PSM    C7S23765   5.692   3.050   3.036
  197PSM    H7S23766   5.760   2.981   2.982
  197PSM    H7T23767   5.754   3.108   3.107
  197PSM    C8S23768   5.590   2.970   3.119
  197PSM    H8S23769   5.525   3.042   3.173
  197PSM    H8T23770   5.525   2.910   3.051
  197PSM    C9S23771   5.659   2.875   3.220
  197PSM    H9S23772   5.724   2.805   3.163
  197PSM    H9T23773   5.724   2.934   3.288
  197PSM   C10S23774   5.561   2.792   3.304
  197PSM   H10S23775   5.489   2.743   3.235
  197PSM   H10T23776   5.615   2.711   3.357
  197PSM   C11S23777   5.483   2.875   3.408
  197PSM   H11S23778   5.452   2.971   3.362
  197PSM   H11T23779   5.390   2.820   3.434
  197PSM   C12S23780   5.560   2.905   3.537
  197PSM   H12S23781   5.571   2.810   3.594
  197PSM   H12T23782   5.661   2.943   3.514
  197PSM   C13S23783   5.485   3.008   3.624
  197PSM   H13S23784   5.497   3.109   3.581
  197PSM   H13T23785   5.377   2.984   3.618
  197PSM   C14S23786   5.527   3.005   3.772
  197PSM   H14S23787   5.449   3.057   3.832
  197PSM   H14T23788   5.528   2.900   3.807
  197PSM   C15S23789   5.663   3.069   3.801
  197PSM   H15S23790   5.694   3.044   3.905
  197PSM   H15T23791   5.738   3.023   3.733
  197PSM   C16S23792   5.668   3.222   3.783
  197PSM   H16S23793   5.774   3.256   3.790
  197PSM   H16T23794   5.632   3.247   3.681
  197PSM   C17S23795   5.585   3.302   3.886
  197PSM   H17S23796   5.575   3.406   3.849
  197PSM   H17T23797   5.482   3.259   3.890
  197PSM   C18S23798   5.644   3.305   4.027
  197PSM   H18S23799   5.743   3.355   4.026
  197PSM   H18T23800   5.577   3.360   4.096
  197PSM   H18U23801   5.657   3.201   4.066
  197PSM    C1F23802   5.849   2.899   2.489
  197PSM     OF23803   5.852   2.988   2.405
  197PSM    C2F23804   5.973   2.822   2.524
  197PSM    H2F23805   6.059   2.868   2.471
  197PSM    H2G23806   5.961   2.718   2.488
  197PSM    C3F23807   6.001   2.822   2.675
  197PSM    H3F23808   6.096   2.765   2.689
  197PSM    H3G23809   5.922   2.768   2.732
  197PSM    C4F23810   6.028   2.960   2.737
  197PSM    H4F23811   5.931   3.013   2.753
  197PSM    H4G23812   6.089   3.020   2.667
  197PSM    C5F23813   6.104   2.950   2.870
  197PSM    H5F23814   6.112   3.052   2.913
  197PSM    H5G23815   6.208   2.915   2.849
  197PSM    C6F23816   6.041   2.853   2.971
  197PSM    H6F23817   6.067   2.749   2.942
  197PSM    H6G23818   5.931   2.862   2.969
  197PSM    C7F23819   6.089   2.877   3.115
  197PSM    H7F23820   6.200   2.884   3.117
  197PSM    H7G23821   6.060   2.790   3.178
  197PSM    C8F23822   6.029   3.004   3.178
  197PSM    H8F23823   5.919   2.989   3.183
  197PSM    H8G23824   6.049   3.093   3.115
  197PSM    C9F23825   6.081   3.029   3.320
  197PSM    H9F23826   6.188   3.057   3.317
  197PSM    H9G23827   6.073   2.932   3.373
  197PSM   C10F23828   6.000   3.136   3.394
  197PSM   H10F23829   5.892   3.113   3.382
  197PSM   H10G23830   6.017   3.235   3.346
  197PSM   C11F23831   6.031   3.145   3.544
  197PSM   H11F23832   5.967   3.223   3.590
  197PSM   H11G23833   6.137   3.174   3.558
  197PSM   C12F23834   6.006   3.011   3.615
  197PSM   H12F23835   6.075   2.934   3.576
  197PSM   H12G23836   5.902   2.977   3.593
  197PSM   C13F23837   6.027   3.016   3.766
  197PSM   H13F23838   5.957   3.089   3.813
  197PSM   H13G23839   6.130   3.051   3.787
  197PSM   C14F23840   6.008   2.877   3.827
  197PSM   H14F23841   6.061   2.803   3.764
  197PSM   H14G23842   5.900   2.850   3.826
  197PSM   C15F23843   6.063   2.866   3.969
  197PSM   H15F23844   6.170   2.895   3.966
  197PSM   H15G23845   6.060   2.759   4.001
  197PSM   C16F23846   5.990   2.952   4.071
  197PSM   H16F23847   6.005   3.060   4.049
  197PSM   H16G23848   5.880   2.932   4.068
  197PSM   H16H23849   6.026   2.932   4.174
  198PSM      N23850   2.658   2.455   2.036
  198PSM    C1523851   2.602   2.319   2.011
  198PSM   H15A23852   2.588   2.300   1.906
  198PSM   H15B23853   2.666   2.243   2.053
  198PSM   H15C23854   2.506   2.312   2.061
  198PSM    C1423855   2.680   2.472   2.183
  198PSM   H14A23856   2.740   2.558   2.207
  198PSM   H14B23857   2.585   2.483   2.233
  198PSM   H14C23858   2.729   2.387   2.228
  198PSM    C1323859   2.791   2.468   1.968
  198PSM   H13A23860   2.782   2.468   1.861
  198PSM   H13B23861   2.842   2.559   1.999
  198PSM   H13C23862   2.856   2.386   1.997
  198PSM    C1223863   2.561   2.563   1.991
  198PSM   H12A23864   2.587   2.655   2.041
  198PSM   H12B23865   2.574   2.581   1.885
  198PSM    C1123866   2.410   2.538   2.017
  198PSM   H11A23867   2.355   2.632   1.994
  198PSM   H11B23868   2.377   2.461   1.944
  198PSM      P23869   2.257   2.412   2.189
  198PSM    O1323870   2.137   2.496   2.206
  198PSM    O1423871   2.242   2.307   2.085
  198PSM    O1123872   2.297   2.343   2.325
  198PSM    O1223873   2.383   2.500   2.152
  198PSM    C1S23874   2.413   2.259   2.328
  198PSM    H1S23875   2.398   2.168   2.266
  198PSM    H1T23876   2.503   2.313   2.290
  198PSM     NF23877   2.570   2.129   2.469
  198PSM    HNF23878   2.560   2.032   2.487
  198PSM    C2S23879   2.450   2.211   2.472
  198PSM    H2S23880   2.470   2.301   2.534
  198PSM    C3S23881   2.333   2.132   2.536
  198PSM    H3S23882   2.321   2.037   2.481
  198PSM     O323883   2.207   2.198   2.527
  198PSM    HO323884   2.223   2.271   2.467
  198PSM    C4S23885   2.368   2.097   2.680
  198PSM    H4S23886   2.436   2.011   2.689
  198PSM    C5S23887   2.324   2.154   2.795
  198PSM    H5S23888   2.253   2.237   2.788
  198PSM    C6S23889   2.358   2.113   2.937
  198PSM    H6S23890   2.413   2.194   2.988
  198PSM    H6T23891   2.262   2.102   2.992
  198PSM    C7S23892   2.435   1.981   2.962
  198PSM    H7S23893   2.412   1.906   2.884
  198PSM    H7T23894   2.544   2.001   2.959
  198PSM    C8S23895   2.401   1.914   3.097
  198PSM    H8S23896   2.296   1.880   3.096
  198PSM    H8T23897   2.465   1.824   3.110
  198PSM    C9S23898   2.422   2.005   3.219
  198PSM    H9S23899   2.525   2.046   3.215
  198PSM    H9T23900   2.351   2.091   3.213
  198PSM   C10S23901   2.402   1.934   3.353
  198PSM   H10S23902   2.307   1.877   3.353
  198PSM   H10T23903   2.485   1.861   3.367
  198PSM   C11S23904   2.402   2.031   3.472
  198PSM   H11S23905   2.431   1.978   3.565
  198PSM   H11T23906   2.477   2.111   3.454
  198PSM   C12S23907   2.264   2.095   3.497
  198PSM   H12S23908   2.217   2.125   3.400
  198PSM   H12T23909   2.199   2.019   3.544
  198PSM   C13S23910   2.272   2.219   3.587
  198PSM   H13S23911   2.354   2.206   3.660
  198PSM   H13T23912   2.299   2.307   3.524
  198PSM   C14S23913   2.140   2.246   3.660
  198PSM   H14S23914   2.133   2.354   3.682
  198PSM   H14T23915   2.055   2.219   3.594
  198PSM   C15S23916   2.129   2.171   3.794
  198PSM   H15S23917   2.026   2.187   3.832
  198PSM   H15T23918   2.144   2.061   3.780
  198PSM   C16S23919   2.231   2.225   3.896
  198PSM   H16S23920   2.332   2.188   3.870
  198PSM   H16T23921   2.231   2.336   3.884
  198PSM   C17S23922   2.205   2.196   4.044
  198PSM   H17S23923   2.121   2.124   4.056
  198PSM   H17T23924   2.295   2.147   4.086
  198PSM   C18S23925   2.178   2.324   4.125
  198PSM   H18S23926   2.252   2.403   4.100
  198PSM   H18T23927   2.077   2.364   4.104
  198PSM   H18U23928   2.187   2.303   4.234
  198PSM    C1F23929   2.693   2.178   2.457
  198PSM     OF23930   2.720   2.278   2.392
  198PSM    C2F23931   2.797   2.102   2.531
  198PSM    H2F23932   2.891   2.102   2.473
  198PSM    H2G23933   2.762   1.997   2.544
  198PSM    C3F23934   2.822   2.162   2.671
  198PSM    H3F23935   2.875   2.259   2.661
  198PSM    H3G23936   2.888   2.089   2.723
  198PSM    C4F23937   2.697   2.181   2.759
  198PSM    H4F23938   2.658   2.082   2.791
  198PSM    H4G23939   2.618   2.234   2.703
  198PSM    C5F23940   2.722   2.270   2.882
  198PSM    H5F23941   2.627   2.291   2.934
  198PSM    H5G23942   2.761   2.367   2.845
  198PSM    C6F23943   2.821   2.210   2.982
  198PSM    H6F23944   2.894   2.146   2.929
  198PSM    H6G23945   2.768   2.143   3.053
  198PSM    C7F23946   2.898   2.320   3.056
  198PSM    H7F23947   2.915   2.405   2.986
  198PSM    H7G23948   2.998   2.285   3.091
  198PSM    C8F23949   2.820   2.368   3.178
  198PSM    H8F23950   2.714   2.383   3.148
  198PSM    H8G23951   2.859   2.466   3.213
  198PSM    C9F23952   2.829   2.267   3.292
  198PSM    H9F23953   2.911   2.296   3.362
  198PSM    H9G23954   2.855   2.166   3.252
  198PSM   C10F23955   2.697   2.254   3.366
  198PSM   H10F23956   2.712   2.187   3.454
  198PSM   H10G23957   2.622   2.207   3.300
  198PSM   C11F23958   2.642   2.388   3.413
  198PSM   H11F23959   2.553   2.414   3.352
  198PSM   H11G23960   2.717   2.469   3.398
  198PSM   C12F23961   2.605   2.383   3.560
  198PSM   H12F23962   2.554   2.287   3.584
  198PSM   H12G23963   2.532   2.464   3.580
  198PSM   C13F23964   2.727   2.402   3.651
  198PSM   H13F23965   2.793   2.480   3.606
  198PSM   H13G23966   2.787   2.309   3.658
  198PSM   C14F23967   2.683   2.451   3.788
  198PSM   H14F23968   2.618   2.538   3.768
  198PSM   H14G23969   2.769   2.487   3.849
  198PSM   C15F23970   2.602   2.348   3.866
  198PSM   H15F23971   2.670   2.294   3.935
  198PSM   H15G23972   2.559   2.271   3.798
  198PSM   C16F23973   2.489   2.412   3.944
  198PSM   H16F23974   2.410   2.449   3.874
  198PSM   H16G23975   2.444   2.340   4.016
  198PSM   H16H23976   2.526   2.500   4.001
  199PSM      N23977   5.776   3.841   2.297
  199PSM    C1523978   5.743   3.873   2.440
  199PSM   H15A23979   5.830   3.900   2.497
  199PSM   H15B23980   5.676   3.958   2.443
  199PSM   H15C23981   5.690   3.791   2.487
  199PSM    C1423982   5.648   3.799   2.231
  199PSM   H14A23983   5.667   3.774   2.127
  199PSM   H14B23984   5.603   3.716   2.283
  199PSM   H14C23985   5.578   3.881   2.233
  199PSM    C1323986   5.822   3.969   2.234
  199PSM   H13A23987   5.908   4.011   2.285
  199PSM   H13B23988   5.852   3.950   2.132
  199PSM   H13C23989   5.744   4.043   2.234
  199PSM    C1223990   5.879   3.730   2.282
  199PSM   H12A23991   5.968   3.761   2.335
  199PSM   H12B23992   5.843   3.641   2.331
  199PSM    C1123993   5.923   3.693   2.137
  199PSM   H11A23994   6.002   3.615   2.144
  199PSM   H11B23995   5.838   3.648   2.083
  199PSM      P23996   6.071   3.806   1.949
  199PSM    O1323997   6.063   3.673   1.884
  199PSM    O1423998   6.042   3.923   1.862
  199PSM    O1123999   6.209   3.829   2.024
  199PSM    O1224000   5.969   3.808   2.068
  199PSM    C1S24001   6.228   3.935   2.119
  199PSM    H1S24002   6.333   3.970   2.115
  199PSM    H1T24003   6.164   4.023   2.094
  199PSM     NF24004   6.225   4.001   2.367
  199PSM    HNF24005   6.270   3.969   2.451
  199PSM    C2S24006   6.201   3.894   2.268
  199PSM    H2S24007   6.093   3.868   2.277
  199PSM    C3S24008   6.284   3.766   2.301
  199PSM    H3S24009   6.390   3.788   2.274
  199PSM     O324010   6.245   3.651   2.226
  199PSM    HO324011   6.223   3.688   2.140
  199PSM    C4S24012   6.276   3.738   2.449
  199PSM    H4S24013   6.371   3.756   2.500
  199PSM    C5S24014   6.173   3.688   2.521
  199PSM    H5S24015   6.080   3.656   2.471
  199PSM    C6S24016   6.182   3.664   2.669
  199PSM    H6S24017   6.109   3.586   2.700
  199PSM    H6T24018   6.283   3.624   2.694
  199PSM    C7S24019   6.167   3.788   2.757
  199PSM    H7S24020   6.239   3.865   2.724
  199PSM    H7T24021   6.064   3.828   2.750
  199PSM    C8S24022   6.198   3.757   2.904
  199PSM    H8S24023   6.294   3.701   2.913
  199PSM    H8T24024   6.212   3.853   2.958
  199PSM    C9S24025   6.086   3.680   2.974
  199PSM    H9S24026   5.988   3.727   2.947
  199PSM    H9T24027   6.084   3.575   2.938
  199PSM   C10S24028   6.099   3.683   3.126
  199PSM   H10S24029   6.196   3.637   3.157
  199PSM   H10T24030   6.100   3.789   3.159
  199PSM   C11S24031   5.983   3.611   3.194
  199PSM   H11S24032   5.889   3.633   3.139
  199PSM   H11T24033   5.999   3.501   3.188
  199PSM   C12S24034   5.963   3.653   3.340
  199PSM   H12S24035   5.940   3.761   3.345
  199PSM   H12T24036   5.874   3.598   3.379
  199PSM   C13S24037   6.084   3.622   3.429
  199PSM   H13S24038   6.115   3.517   3.414
  199PSM   H13T24039   6.170   3.687   3.398
  199PSM   C14S24040   6.057   3.644   3.578
  199PSM   H14S24041   6.150   3.621   3.634
  199PSM   H14T24042   6.033   3.751   3.596
  199PSM   C15S24043   5.943   3.556   3.633
  199PSM   H15S24044   5.845   3.600   3.604
  199PSM   H15T24045   5.950   3.456   3.585
  199PSM   C16S24046   5.950   3.538   3.785
  199PSM   H16S24047   5.872   3.465   3.817
  199PSM   H16T24048   6.049   3.494   3.810
  199PSM   C17S24049   5.932   3.669   3.862
  199PSM   H17S24050   5.976   3.753   3.805
  199PSM   H17T24051   5.823   3.690   3.870
  199PSM   C18S24052   5.996   3.667   4.001
  199PSM   H18S24053   5.978   3.764   4.053
  199PSM   H18T24054   5.953   3.585   4.062
  199PSM   H18U24055   6.105   3.652   3.992
  199PSM    C1F24056   6.158   4.116   2.371
  199PSM     OF24057   6.090   4.152   2.276
  199PSM    C2F24058   6.169   4.200   2.495
  199PSM    H2F24059   6.193   4.304   2.463
  199PSM    H2G24060   6.253   4.165   2.559
  199PSM    C3F24061   6.038   4.206   2.576
  199PSM    H3F24062   5.949   4.188   2.511
  199PSM    H3G24063   6.026   4.308   2.618
  199PSM    C4F24064   6.038   4.106   2.693
  199PSM    H4F24065   6.102   4.019   2.666
  199PSM    H4G24066   5.935   4.069   2.710
  199PSM    C5F24067   6.088   4.171   2.824
  199PSM    H5F24068   6.029   4.264   2.837
  199PSM    H5G24069   6.195   4.201   2.811
  199PSM    C6F24070   6.074   4.086   2.951
  199PSM    H6F24071   6.175   4.069   2.993
  199PSM    H6G24072   6.030   3.987   2.926
  199PSM    C7F24073   5.987   4.151   3.061
  199PSM    H7F24074   5.886   4.104   3.060
  199PSM    H7G24075   5.971   4.259   3.040
  199PSM    C8F24076   6.046   4.139   3.203
  199PSM    H8F24077   6.148   4.182   3.206
  199PSM    H8G24078   6.053   4.032   3.231
  199PSM    C9F24079   5.957   4.213   3.305
  199PSM    H9F24080   5.853   4.179   3.287
  199PSM    H9G24081   5.960   4.322   3.286
  199PSM   C10F24082   5.990   4.185   3.453
  199PSM   H10F24083   6.080   4.243   3.484
  199PSM   H10G24084   6.012   4.077   3.466
  199PSM   C11F24085   5.869   4.222   3.540
  199PSM   H11F24086   5.782   4.166   3.500
  199PSM   H11G24087   5.849   4.331   3.526
  199PSM   C12F24088   5.880   4.194   3.690
  199PSM   H12F24089   5.793   4.242   3.739
  199PSM   H12G24090   5.972   4.241   3.732
  199PSM   C13F24091   5.877   4.044   3.726
  199PSM   H13F24092   5.976   3.999   3.708
  199PSM   H13G24093   5.804   3.992   3.660
  199PSM   C14F24094   5.832   4.019   3.872
  199PSM   H14F24095   5.837   3.910   3.893
  199PSM   H14G24096   5.725   4.049   3.881
  199PSM   C15F24097   5.914   4.094   3.978
  199PSM   H15F24098   5.877   4.063   4.079
  199PSM   H15G24099   5.892   4.202   3.967
  199PSM   C16F24100   6.065   4.071   3.971
  199PSM   H16F24101   6.106   4.108   3.874
  199PSM   H16G24102   6.117   4.125   4.053
  199PSM   H16H24103   6.089   3.963   3.979
  200PSM      N24104   1.971   2.916   2.031
  200PSM    C1524105   2.042   2.845   2.142
  200PSM   H15A24106   1.994   2.868   2.237
  200PSM   H15B24107   2.038   2.737   2.130
  200PSM   H15C24108   2.145   2.873   2.150
  200PSM    C1424109   1.976   3.064   2.056
  200PSM   H14A24110   1.925   3.118   1.978
  200PSM   H14B24111   1.919   3.085   2.145
  200PSM   H14C24112   2.077   3.101   2.069
  200PSM    C1324113   2.039   2.886   1.900
  200PSM   H13A24114   2.033   2.780   1.878
  200PSM   H13B24115   1.991   2.940   1.820
  200PSM   H13C24116   2.143   2.915   1.902
  200PSM    C1224117   1.825   2.873   2.024
  200PSM   H12A24118   1.777   2.926   1.944
  200PSM   H12B24119   1.820   2.768   1.999
  200PSM    C1124120   1.737   2.896   2.150
  200PSM   H11A24121   1.637   2.851   2.133
  200PSM   H11B24122   1.781   2.844   2.237
  200PSM      P24123   1.601   3.118   2.215
  200PSM    O1324124   1.611   3.248   2.145
  200PSM    O1424125   1.478   3.040   2.188
  200PSM    O1124126   1.618   3.135   2.371
  200PSM    O1224127   1.729   3.035   2.177
  200PSM    C1S24128   1.679   3.030   2.449
  200PSM    H1S24129   1.633   2.931   2.427
  200PSM    H1T24130   1.788   3.024   2.426
  200PSM     NF24131   1.728   2.949   2.682
  200PSM    HNF24132   1.669   2.897   2.743
  200PSM    C2S24133   1.665   3.054   2.602
  200PSM    H2S24134   1.717   3.150   2.624
  200PSM    C3S24135   1.514   3.070   2.639
  200PSM    H3S24136   1.461   2.976   2.613
  200PSM     O324137   1.447   3.174   2.570
  200PSM    HO324138   1.507   3.197   2.498
  200PSM    C4S24139   1.503   3.092   2.787
  200PSM    H4S24140   1.422   3.035   2.835
  200PSM    C5S24141   1.577   3.176   2.862
  200PSM    H5S24142   1.654   3.239   2.816
  200PSM    C6S24143   1.559   3.193   3.010
  200PSM    H6S24144   1.526   3.297   3.029
  200PSM    H6T24145   1.480   3.125   3.049
  200PSM    C7S24146   1.684   3.168   3.095
  200PSM    H7S24147   1.710   3.060   3.091
  200PSM    H7T24148   1.772   3.226   3.059
  200PSM    C8S24149   1.654   3.204   3.240
  200PSM    H8S24150   1.638   3.314   3.248
  200PSM    H8T24151   1.559   3.154   3.268
  200PSM    C9S24152   1.755   3.157   3.343
  200PSM    H9S24153   1.744   3.047   3.355
  200PSM    H9T24154   1.859   3.174   3.306
  200PSM   C10S24155   1.734   3.228   3.477
  200PSM   H10S24156   1.821   3.292   3.501
  200PSM   H10T24157   1.647   3.296   3.469
  200PSM   C11S24158   1.707   3.134   3.594
  200PSM   H11S24159   1.614   3.165   3.647
  200PSM   H11T24160   1.689   3.033   3.551
  200PSM   C12S24161   1.819   3.121   3.696
  200PSM   H12S24162   1.913   3.099   3.641
  200PSM   H12T24163   1.830   3.216   3.752
  200PSM   C13S24164   1.788   3.014   3.800
  200PSM   H13S24165   1.779   3.066   3.897
  200PSM   H13T24166   1.689   2.968   3.781
  200PSM   C14S24167   1.895   2.904   3.804
  200PSM   H14S24168   1.919   2.868   3.702
  200PSM   H14T24169   1.986   2.948   3.850
  200PSM   C15S24170   1.858   2.788   3.895
  200PSM   H15S24171   1.780   2.724   3.848
  200PSM   H15T24172   1.949   2.725   3.910
  200PSM   C16S24173   1.809   2.842   4.028
  200PSM   H16S24174   1.844   2.947   4.044
  200PSM   H16T24175   1.698   2.843   4.028
  200PSM   C17S24176   1.864   2.766   4.146
  200PSM   H17S24177   1.800   2.792   4.233
  200PSM   H17T24178   1.856   2.657   4.125
  200PSM   C18S24179   2.007   2.804   4.183
  200PSM   H18S24180   2.077   2.787   4.098
  200PSM   H18T24181   2.012   2.910   4.214
  200PSM   H18U24182   2.039   2.741   4.269
  200PSM    C1F24183   1.859   2.927   2.692
  200PSM     OF24184   1.938   2.981   2.615
  200PSM    C2F24185   1.903   2.832   2.800
  200PSM    H2F24186   2.011   2.810   2.788
  200PSM    H2G24187   1.847   2.737   2.788
  200PSM    C3F24188   1.878   2.887   2.944
  200PSM    H3F24189   1.775   2.929   2.949
  200PSM    H3G24190   1.950   2.969   2.965
  200PSM    C4F24191   1.889   2.779   3.054
  200PSM    H4F24192   1.985   2.724   3.044
  200PSM    H4G24193   1.807   2.706   3.038
  200PSM    C5F24194   1.878   2.832   3.199
  200PSM    H5F24195   1.827   2.756   3.262
  200PSM    H5G24196   1.815   2.924   3.201
  200PSM    C6F24197   2.014   2.862   3.264
  200PSM    H6F24198   2.069   2.934   3.200
  200PSM    H6G24199   2.071   2.767   3.266
  200PSM    C7F24200   2.011   2.919   3.408
  200PSM    H7F24201   1.923   2.877   3.462
  200PSM    H7G24202   1.997   3.030   3.403
  200PSM    C8F24203   2.138   2.887   3.489
  200PSM    H8F24204   2.208   2.831   3.424
  200PSM    H8G24205   2.112   2.816   3.571
  200PSM    C9F24206   2.217   3.006   3.549
  200PSM    H9F24207   2.188   3.101   3.498
  200PSM    H9G24208   2.325   2.993   3.529
  200PSM   C10F24209   2.197   3.017   3.701
  200PSM   H10F24210   2.214   2.916   3.745
  200PSM   H10G24211   2.091   3.045   3.717
  200PSM   C11F24212   2.283   3.118   3.778
  200PSM   H11F24213   2.386   3.121   3.738
  200PSM   H11G24214   2.289   3.082   3.883
  200PSM   C12F24215   2.221   3.259   3.781
  200PSM   H12F24216   2.121   3.255   3.733
  200PSM   H12G24217   2.285   3.327   3.722
  200PSM   C13F24218   2.201   3.317   3.922
  200PSM   H13F24219   2.168   3.423   3.910
  200PSM   H13G24220   2.298   3.318   3.976
  200PSM   C14F24221   2.094   3.245   4.005
  200PSM   H14F24222   2.134   3.147   4.040
  200PSM   H14G24223   2.005   3.224   3.941
  200PSM   C15F24224   2.048   3.327   4.127
  200PSM   H15F24225   1.977   3.266   4.186
  200PSM   H15G24226   1.993   3.417   4.091
  200PSM   C16F24227   2.163   3.375   4.216
  200PSM   H16F24228   2.225   3.288   4.248
  200PSM   H16G24229   2.228   3.447   4.162
  200PSM   H16H24230   2.123   3.425   4.307
  201SOD    SOD24231   0.086   5.454   6.714
  202SOD    SOD24232   5.443   7.368   1.950
  203SOD    SOD24233   2.351   6.129   0.197
  204SOD    SOD24234   0.176   0.523   1.017
  205SOD    SOD24235   6.725   4.735   7.829
  206SOD    SOD24236   6.604   6.828   6.714
  207SOD    SOD24237   7.563   0.059   0.253
  208SOD    SOD24238   6.014   4.094   0.950
  209SOD    SOD24239   2.406   6.564   7.554
  210SOD    SOD24240   2.794   4.385   8.227
  211SOD    SOD24241   1.406   6.435   0.501
  212SOD    SOD24242   2.923   7.096   1.841
  213SOD    SOD24243   7.258   3.061   6.939
  214SOD    SOD24244   6.084   2.967   7.360
  215SOD    SOD24245   1.561   2.701   8.084
  216SOD    SOD24246   7.646   7.194   6.998
  217SOD    SOD24247   6.890   3.314   6.634
  218SOD    SOD24248   2.329   6.420   6.888
  219SOD    SOD24249   5.083   7.029   0.022
  220SOD    SOD24250   2.201   4.036   0.763
  221SOD    SOD24251   4.463   2.253   1.024
  222SOD    SOD24252   6.039   7.603   8.337
  223SOD    SOD24253   2.138   0.010   0.142
  224SOD    SOD24254   2.519   2.765   8.135
  225SOD    SOD24255   6.448   1.808   8.148
  226SOD    SOD24256   0.558   6.849   6.849
  227SOD    SOD24257   0.849   2.781   0.322
  228SOD    SOD24258   3.397   1.061   1.487
  229SOD    SOD24259   6.588   7.353   7.129
  230SOD    SOD24260   3.088   2.738   7.055
  231SOD    SOD24261   3.377   1.751   0.346
  232SOD    SOD24262   2.895   6.964   7.582
  233SOD    SOD24263   2.472   0.567   1.455
  234SOD    SOD24264   6.363   2.572   1.689
  235SOD    SOD24265   2.819   4.754   7.859
  236SOD    SOD24266   0.309   5.979   0.863
  237SOD    SOD24267   1.887   5.629   8.480
  238SOD    SOD24268   2.938   4.347   1.236
  239SOD    SOD24269   6.170   6.416   0.842
  240SOD    SOD24270   0.101   4.560   7.500
  241SOD    SOD24271   4.347   1.212   7.006
  242SOD    SOD24272   0.221   3.716   0.789
  243SOD    SOD24273   5.684   0.006   0.421
  244SOD    SOD24274   5.092   3.518   1.026
  245SOD    SOD24275   0.403   3.318   1.302
  246SOD    SOD24276   3.743   1.575   1.287
  247SOD    SOD24277   4.680   7.705   1.336
  248SOD    SOD24278   6.512   3.676   6.450
  249SOD    SOD24279   0.783   5.581   0.478
  250SOD    SOD24280   6.728   3.194   7.624
  251SOD    SOD24281   4.670   4.513   6.755
  252SOD    SOD24282   3.145   2.084   6.809
  253SOD    SOD24283   2.012   1.601   1.506
  254SOD    SOD24284   2.326   7.057   1.831
  255SOD    SOD24285   1.724   7.387   1.825
  256SOD    SOD24286   5.794   3.943   1.457
  257SOD    SOD24287   3.381   0.236   8.329
  258SOD    SOD24288   2.662   3.430   7.749
  259SOD    SOD24289   4.209   0.078   6.896
  260SOD    SOD24290   1.478   1.475   0.793
  261SOD    SOD24291   0.397   3.082   0.707
  262SOD    SOD24292   1.179   2.109   0.256
  263SOD    SOD24293   4.360   7.175   7.018
  264SOD    SOD24294   6.828   0.958   7.843
  265SOD    SOD24295   0.852   3.527   0.495
  266SOD    SOD24296   4.735   0.105   8.116
  267SOD    SOD24297   3.823   2.570   8.127
  268SOD    SOD24298   3.250   3.049   6.889
  269SOD    SOD24299   4.970   7.498   0.347
  270CLA    CLA24300   6.342   2.202   0.606
  271CLA    CLA24301   4.659   6.790   1.970
  272CLA    CLA24302   5.730   3.051   0.595
  273CLA    CLA24303   5.620   1.225   6.479
  274CLA    CLA24304   0.447   1.965   0.375
  275CLA    CLA24305   1.550   4.564   0.328
  276CLA    CLA24306   0.759   5.283   1.622
  277CLA    CLA24307   4.781   5.105   7.889
  278CLA    CLA24308   0.661   2.244   7.235
  279CLA    CLA24309   3.052   6.807   7.867
  280CLA    CLA24310   4.299   0.277   7.987
  281CLA    CLA24311   7.641   1.539   6.947
  282CLA    CLA24312   5.157   5.888   8.378
  283CLA    CLA24313   5.285   6.530   7.746
  284CLA    CLA24314   0.316   7.323   1.499
  285CLA    CLA24315   5.656   0.258   1.512
  286CLA    CLA24316   6.948   5.856   6.879
  287CLA    CLA24317   5.737   6.546   8.199
  288CLA    CLA24318   4.009   2.370   0.853
  289TIP3   OH224319   4.454   3.921   6.333
  289TIP3    H124320   4.550   3.916   6.327
  289TIP3    H224321   4.423   3.859   6.267
  290TIP3   OH224322   4.053   3.807   6.320
  290TIP3    H124323   3.999   3.758   6.258
  290TIP3    H224324   4.123   3.845   6.266
  291TIP3   OH224325   4.307   4.147   6.291
  291TIP3    H124326   4.353   4.070   6.325
  291TIP3    H224327   4.261   4.183   6.367
  292TIP3   OH224328   2.692   3.577   6.251
  292TIP3    H124329   2.632   3.503   6.256
  292TIP3    H224330   2.761   3.549   6.191
  293TIP3   OH224331   3.132   3.367   6.244
  293TIP3    H124332   3.090   3.298   6.297
  293TIP3    H224333   3.191   3.319   6.186
  294TIP3   OH224334   3.098   5.041   6.284
  294TIP3    H124335   3.146   5.097   6.344
  294TIP3    H224336   3.007   5.049   6.311
  295TIP3   OH224337   3.546   2.084   6.319
  295TIP3    H124338   3.505   2.035   6.248
  295TIP3    H224339   3.594   2.154   6.275
  296TIP3   OH224340   3.617   1.758   6.289
  296TIP3    H124341   3.693   1.813   6.271
  296TIP3    H224342   3.549   1.789   6.228
  297TIP3   OH224343   3.178   1.895   6.210
  297TIP3    H124344   3.122   1.972   6.213
  297TIP3    H224345   3.180   1.862   6.300
  298TIP3   OH224346   3.476   6.280   6.400
  298TIP3    H124347   3.465   6.353   6.338
  298TIP3    H224348   3.433   6.206   6.356
  299TIP3   OH224349   5.253   1.648   6.509
  299TIP3    H124350   5.298   1.571   6.543
  299TIP3    H224351   5.160   1.625   6.513
  300TIP3   OH224352   3.869   0.860   6.272
  300TIP3    H124353   3.931   0.811   6.217
  300TIP3    H224354   3.835   0.794   6.332
  301TIP3   OH224355   3.904   1.120   6.380
  301TIP3    H124356   3.887   1.163   6.296
  301TIP3    H224357   3.907   1.027   6.359
  302TIP3   OH224358   6.827   3.418   6.421
  302TIP3    H124359   6.793   3.349   6.364
  302TIP3    H224360   6.911   3.443   6.382
  303TIP3   OH224361   6.521   3.603   6.236
  303TIP3    H124362   6.458   3.621   6.166
  303TIP3    H224363   6.583   3.541   6.198
  304TIP3   OH224364   6.907   2.481   6.258
  304TIP3    H124365   6.966   2.544   6.216
  304TIP3    H224366   6.948   2.396   6.244
  305TIP3   OH224367   7.254   2.865   6.207
  305TIP3    H124368   7.325   2.899   6.152
  305TIP3    H224369   7.292   2.788   6.249
  306TIP3   OH224370   1.343   1.142   6.223
  306TIP3    H124371   1.269   1.181   6.174
  306TIP3    H224372   1.391   1.092   6.157
  307TIP3   OH224373   1.411   0.733   6.376
  307TIP3    H124374   1.444   0.797   6.313
  307TIP3    H224375   1.344   0.684   6.329
  308TIP3   OH224376   1.219   0.608   6.227
  308TIP3    H124377   1.180   0.527   6.193
  308TIP3    H224378   1.186   0.676   6.169
  309TIP3   OH224379   4.361   4.441   2.302
  309TIP3    H124380   4.305   4.489   2.363
  309TIP3    H224381   4.333   4.471   2.216
  310TIP3   OH224382   3.247   4.840   2.097
  310TIP3    H124383   3.331   4.821   2.057
  310TIP3    H224384   3.182   4.817   2.030
  311TIP3   OH224385   4.221   2.778   2.150
  311TIP3    H124386   4.273   2.700   2.131
  311TIP3    H224387   4.171   2.756   2.229
  312TIP3   OH224388   3.792   2.763   2.270
  312TIP3    H124389   3.741   2.694   2.230
  312TIP3    H224390   3.727   2.827   2.300
  313TIP3   OH224391   4.048   2.435   2.215
  313TIP3    H124392   4.056   2.488   2.295
  313TIP3    H224393   3.981   2.370   2.236
  314TIP3   OH224394   1.939   4.222   2.186
  314TIP3    H124395   1.960   4.301   2.235
  314TIP3    H224396   1.968   4.150   2.242
  315TIP3   OH224397   1.294   3.338   2.192
  315TIP3    H124398   1.369   3.399   2.193
  315TIP3    H224399   1.334   3.251   2.193
  316TIP3   OH224400   4.825   6.585   2.280
  316TIP3    H124401   4.802   6.494   2.261
  316TIP3    H224402   4.916   6.592   2.252
  317TIP3   OH224403   4.300   6.514   2.311
  317TIP3    H124404   4.316   6.599   2.271
  317TIP3    H224405   4.387   6.476   2.323
  318TIP3   OH224406   4.384   6.195   2.261
  318TIP3    H124407   4.430   6.160   2.185
  318TIP3    H224408   4.448   6.250   2.305
  319TIP3   OH224409   4.842   6.292   2.261
  319TIP3    H124410   4.891   6.239   2.198
  319TIP3    H224411   4.904   6.308   2.332
  320TIP3   OH224412   6.027   2.399   2.268
  320TIP3    H124413   6.108   2.424   2.312
  320TIP3    H224414   5.967   2.375   2.339
  321TIP3   OH224415   6.339   2.574   2.000
  321TIP3    H124416   6.364   2.521   2.076
  321TIP3    H224417   6.270   2.524   1.957
  322TIP3   OH224418   6.481   2.294   2.246
  322TIP3    H124419   6.576   2.284   2.246
  322TIP3    H224420   6.448   2.204   2.248
  323TIP3   OH224421   1.212   4.726   2.244
  323TIP3    H124422   1.139   4.778   2.279
  323TIP3    H224423   1.291   4.771   2.277
  324TIP3   OH224424   0.870   5.212   2.287
  324TIP3    H124425   0.840   5.295   2.325
  324TIP3    H224426   0.829   5.209   2.200
  325TIP3   OH224427   1.157   5.162   2.071
  325TIP3    H124428   1.072   5.174   2.113
  325TIP3    H224429   1.207   5.109   2.133
  326TIP3   OH224430   6.778   5.355   2.244
  326TIP3    H124431   6.865   5.388   2.267
  326TIP3    H224432   6.739   5.425   2.193
  327TIP3   OH224433   6.466   5.615   2.168
  327TIP3    H124434   6.406   5.649   2.235
  327TIP3    H224435   6.530   5.685   2.156
  328TIP3   OH224436   6.399   5.343   2.121
  328TIP3    H124437   6.415   5.437   2.123
  328TIP3    H224438   6.420   5.312   2.209
  329TIP3   OH224439   1.161   5.618   2.266
  329TIP3    H124440   1.102   5.562   2.214
  329TIP3    H224441   1.241   5.567   2.273
  330TIP3   OH224442   7.425   4.558   2.368
  330TIP3    H124443   7.331   4.572   2.357
  330TIP3    H224444   7.454   4.631   2.423
  331TIP3   OH224445   6.984   4.768   2.198
  331TIP3    H124446   6.904   4.783   2.147
  331TIP3    H224447   7.046   4.833   2.165
  332TIP3   OH224448   1.086   1.562   2.179
  332TIP3    H124449   1.020   1.551   2.111
  332TIP3    H224450   1.152   1.619   2.141
  333TIP3   OH224451   1.545   1.475   2.258
  333TIP3    H124452   1.609   1.523   2.311
  333TIP3    H224453   1.463   1.482   2.307
  334TIP3   OH224454   1.305   1.753   2.191
  334TIP3    H124455   1.305   1.685   2.258
  334TIP3    H224456   1.359   1.823   2.227
  335TIP3   OH224457   7.142   6.992   2.185
  335TIP3    H124458   7.199   7.061   2.219
  335TIP3    H224459   7.151   6.920   2.247
  336TIP3   OH224460   7.200   6.508   2.291
  336TIP3    H124461   7.289   6.532   2.318
  336TIP3    H224462   7.198   6.412   2.300
  337TIP3   OH224463   7.340   7.174   2.264
  337TIP3    H124464   7.375   7.086   2.275
  337TIP3    H224465   7.417   7.231   2.272
  338TIP3   OH224466   7.638   6.157   2.075
  338TIP3    H124467   7.677   6.228   2.025
  338TIP3    H224468   7.555   6.193   2.107
  339TIP3   OH224469   0.118   6.495   2.301
  339TIP3    H124470   0.046   6.433   2.300
  339TIP3    H224471   0.179   6.459   2.366
  340TIP3   OH224472   0.188   6.057   2.048
  340TIP3    H124473   0.208   6.012   2.130
  340TIP3    H224474   0.100   6.091   2.060
  341TIP3   OH224475   1.202   1.032   6.934
  341TIP3    H124476   1.188   1.126   6.930
  341TIP3    H224477   1.146   0.996   6.865
  342TIP3   OH224478   1.103   0.923   7.317
  342TIP3    H124479   1.118   0.865   7.391
  342TIP3    H224480   1.045   0.875   7.259
  343TIP3   OH224481   0.291   0.865   7.454
  343TIP3    H124482   0.312   0.780   7.493
  343TIP3    H224483   0.367   0.920   7.474
  344TIP3   OH224484   1.447   1.231   7.123
  344TIP3    H124485   1.408   1.156   7.168
  344TIP3    H224486   1.466   1.293   7.192
  345TIP3   OH224487   0.408   1.338   7.260
  345TIP3    H124488   0.383   1.250   7.232
  345TIP3    H224489   0.504   1.337   7.261
  346TIP3   OH224490   0.089   0.763   6.862
  346TIP3    H124491   0.084   0.818   6.784
  346TIP3    H224492   0.016   0.702   6.853
  347TIP3   OH224493   0.251   0.909   7.084
  347TIP3    H124494   0.226   0.818   7.100
  347TIP3    H224495   0.258   0.916   6.989
  348TIP3   OH224496   1.180   1.746   7.128
  348TIP3    H124497   1.232   1.684   7.076
  348TIP3    H224498   1.137   1.691   7.194
  349TIP3   OH224499   0.909   1.202   7.298
  349TIP3    H124500   0.943   1.153   7.224
  349TIP3    H224501   0.984   1.211   7.357
  350TIP3   OH224502   1.820   0.320   7.399
  350TIP3    H124503   1.818   0.392   7.462
  350TIP3    H224504   1.883   0.348   7.332
  351TIP3   OH224505   1.256   0.603   7.340
  351TIP3    H124506   1.276   0.510   7.342
  351TIP3    H224507   1.231   0.621   7.249
  352TIP3   OH224508   0.567   0.450   7.015
  352TIP3    H124509   0.530   0.533   6.986
  352TIP3    H224510   0.525   0.385   6.959
  353TIP3   OH224511   1.348   0.471   6.902
  353TIP3    H124512   1.395   0.446   6.981
  353TIP3    H224513   1.411   0.521   6.850
  354TIP3   OH224514   0.194   0.635   7.134
  354TIP3    H124515   0.274   0.592   7.165
  354TIP3    H224516   0.157   0.573   7.071
  355TIP3   OH224517   0.694   0.793   7.065
  355TIP3    H124518   0.774   0.775   7.114
  355TIP3    H224519   0.701   0.738   6.987
  356TIP3   OH224520   1.826   0.490   7.616
  356TIP3    H124521   1.770   0.561   7.586
  356TIP3    H224522   1.783   0.457   7.695
  357TIP3   OH224523   0.436   0.347   7.482
  357TIP3    H124524   0.395   0.390   7.407
  357TIP3    H224525   0.371   0.351   7.551
  358TIP3   OH224526   1.132   1.282   6.833
  358TIP3    H124527   1.116   1.263   6.741
  358TIP3    H224528   1.090   1.367   6.848
  359TIP3   OH224529   0.724   1.105   7.478
  359TIP3    H124530   0.659   1.171   7.502
  359TIP3    H224531   0.780   1.149   7.414
  360TIP3   OH224532   1.482   0.415   7.132
  360TIP3    H124533   1.423   0.375   7.195
  360TIP3    H224534   1.543   0.467   7.185
  361TIP3   OH224535   0.409   0.497   7.241
  361TIP3    H124536   0.473   0.549   7.290
  361TIP3    H224537   0.457   0.466   7.164
  362TIP3   OH224538   0.539   1.295   7.561
  362TIP3    H124539   0.540   1.390   7.564
  362TIP3    H224540   0.449   1.273   7.537
  363TIP3   OH224541   0.158   1.262   6.703
  363TIP3    H124542   0.063   1.271   6.695
  363TIP3    H224543   0.184   1.338   6.755
  364TIP3   OH224544   1.496   1.425   7.328
  364TIP3    H124545   1.404   1.424   7.351
  364TIP3    H224546   1.513   1.515   7.299
  365TIP3   OH224547   1.574   0.232   7.499
  365TIP3    H124548   1.501   0.224   7.437
  365TIP3    H224549   1.650   0.253   7.445
  366TIP3   OH224550   0.829   0.118   7.198
  366TIP3    H124551   0.822   0.025   7.219
  366TIP3    H224552   0.749   0.157   7.234
  367TIP3   OH224553   1.324   1.601   6.948
  367TIP3    H124554   1.357   1.513   6.927
  367TIP3    H224555   1.400   1.658   6.939
  368TIP3   OH224556   1.449   1.368   6.879
  368TIP3    H124557   1.456   1.309   6.804
  368TIP3    H224558   1.447   1.309   6.955
  369TIP3   OH224559   1.603   1.233   7.694
  369TIP3    H124560   1.590   1.178   7.617
  369TIP3    H224561   1.608   1.322   7.659
  370TIP3   OH224562   1.105   0.976   6.674
  370TIP3    H124563   1.074   1.061   6.642
  370TIP3    H224564   1.188   0.962   6.627
  371TIP3   OH224565   1.776   0.919   7.541
  371TIP3    H124566   1.702   0.977   7.521
  371TIP3    H224567   1.833   0.925   7.464
  372TIP3   OH224568   1.430   0.988   6.785
  372TIP3    H124569   1.356   1.000   6.845
  372TIP3    H224570   1.484   0.921   6.827
  373TIP3   OH224571   1.385   0.779   7.697
  373TIP3    H124572   1.380   0.861   7.747
  373TIP3    H224573   1.315   0.785   7.633
  374TIP3   OH224574   0.557   0.986   6.923
  374TIP3    H124575   0.522   0.940   6.846
  374TIP3    H224576   0.602   0.917   6.973
  375TIP3   OH224577   0.686   1.356   7.218
  375TIP3    H124578   0.672   1.357   7.123
  375TIP3    H224579   0.760   1.297   7.231
  376TIP3   OH224580   0.611   0.885   7.352
  376TIP3    H124581   0.598   0.905   7.259
  376TIP3    H224582   0.645   0.966   7.389
  377TIP3   OH224583   1.244   1.437   7.419
  377TIP3    H124584   1.218   1.508   7.478
  377TIP3    H224585   1.191   1.362   7.447
  378TIP3   OH224586   0.692   1.321   7.792
  378TIP3    H124587   0.630   1.379   7.837
  378TIP3    H224588   0.647   1.295   7.711
  379TIP3   OH224589   0.417   0.953   7.715
  379TIP3    H124590   0.416   1.033   7.766
  379TIP3    H224591   0.325   0.924   7.713
  380TIP3   OH224592   1.034   1.554   6.850
  380TIP3    H124593   1.101   1.573   6.916
  380TIP3    H224594   0.959   1.607   6.876
  381TIP3   OH224595   0.509   1.508   7.890
  381TIP3    H124596   0.515   1.536   7.799
  381TIP3    H224597   0.415   1.503   7.907
  382TIP3   OH224598   0.121   1.129   7.670
  382TIP3    H124599   0.032   1.141   7.638
  382TIP3    H224600   0.131   1.035   7.681
  383TIP3   OH224601   0.141   1.478   7.292
  383TIP3    H124602   0.209   1.420   7.256
  383TIP3    H224603   0.171   1.496   7.382
  384TIP3   OH224604   1.870   1.532   7.889
  384TIP3    H124605   1.861   1.439   7.871
  384TIP3    H224606   1.785   1.559   7.923
  385TIP3   OH224607   0.936   1.448   7.760
  385TIP3    H124608   0.931   1.531   7.808
  385TIP3    H224609   0.848   1.410   7.771
  386TIP3   OH224610   0.987   1.843   6.680
  386TIP3    H124611   0.907   1.851   6.627
  386TIP3    H224612   0.985   1.919   6.738
  387TIP3   OH224613   0.394   1.696   6.934
  387TIP3    H124614   0.399   1.668   7.026
  387TIP3    H224615   0.329   1.637   6.895
  388TIP3   OH224616   1.244   1.757   6.730
  388TIP3    H124617   1.149   1.769   6.722
  388TIP3    H224618   1.253   1.694   6.802
  389TIP3   OH224619   1.557   0.633   7.874
  389TIP3    H124620   1.495   0.682   7.819
  389TIP3    H224621   1.562   0.546   7.832
  390TIP3   OH224622   0.284   1.338   7.713
  390TIP3    H124623   0.347   1.286   7.764
  390TIP3    H224624   0.219   1.274   7.683
  391TIP3   OH224625   0.580   0.221   7.277
  391TIP3    H124626   0.513   0.227   7.209
  391TIP3    H224627   0.544   0.273   7.350
  392TIP3   OH224628   0.981   0.168   7.680
  392TIP3    H124629   1.016   0.079   7.689
  392TIP3    H224630   0.897   0.157   7.636
  393TIP3   OH224631   1.305   0.503   7.735
  393TIP3    H124632   1.242   0.489   7.806
  393TIP3    H224633   1.306   0.598   7.723
  394TIP3   OH224634   0.955   0.321   6.388
  394TIP3    H124635   0.887   0.313   6.454
  394TIP3    H224636   0.909   0.354   6.311
  395TIP3   OH224637   0.579   0.628   7.416
  395TIP3    H124638   0.507   0.630   7.478
  395TIP3    H224639   0.591   0.719   7.388
  396TIP3   OH224640   1.125   0.721   6.802
  396TIP3    H124641   1.093   0.803   6.765
  396TIP3    H224642   1.201   0.698   6.747
  397TIP3   OH224643   1.014   0.709   7.934
  397TIP3    H124644   0.965   0.635   7.969
  397TIP3    H224645   1.101   0.701   7.974
  398TIP3   OH224646   1.216   0.656   7.070
  398TIP3    H124647   1.179   0.721   7.011
  398TIP3    H224648   1.240   0.583   7.013
  399TIP3   OH224649   0.366   0.637   7.588
  399TIP3    H124650   0.388   0.674   7.674
  399TIP3    H224651   0.311   0.562   7.608
  400TIP3   OH224652   0.103   0.416   6.980
  400TIP3    H124653   0.050   0.364   7.041
  400TIP3    H224654   0.050   0.422   6.901
  401TIP3   OH224655   1.158   0.758   7.537
  401TIP3    H124656   1.196   0.701   7.469
  401TIP3    H224657   1.093   0.703   7.581
  402TIP3   OH224658   0.856   0.418   7.025
  402TIP3    H124659   0.761   0.424   7.029
  402TIP3    H224660   0.882   0.382   7.110
  403TIP3   OH224661   0.742   0.715   6.704
  403TIP3    H124662   0.796   0.636   6.707
  403TIP3    H224663   0.668   0.692   6.647
  404TIP3   OH224664   1.295   0.330   7.324
  404TIP3    H124665   1.269   0.311   7.414
  404TIP3    H224666   1.220   0.303   7.271
  405TIP3   OH224667   1.597   1.891   7.993
  405TIP3    H124668   1.613   1.915   7.901
  405TIP3    H224669   1.675   1.923   8.040
  406TIP3   OH224670   0.392   1.161   7.902
  406TIP3    H124671   0.455   1.156   7.974
  406TIP3    H224672   0.306   1.158   7.944
  407TIP3   OH224673   0.933   0.704   7.203
  407TIP3    H124674   0.989   0.650   7.147
  407TIP3    H224675   0.903   0.645   7.272
  408TIP3   OH224676   0.841   0.552   7.426
  408TIP3    H124677   0.752   0.588   7.420
  408TIP3    H224678   0.877   0.592   7.505
  409TIP3   OH224679   1.575   1.089   7.462
  409TIP3    H124680   1.630   1.146   7.407
  409TIP3    H224681   1.501   1.067   7.405
  410TIP3   OH224682   1.200   0.407   6.472
  410TIP3    H124683   1.116   0.375   6.440
  410TIP3    H224684   1.222   0.480   6.415
  411TIP3   OH224685   1.039   1.187   7.760
  411TIP3    H124686   1.012   1.143   7.841
  411TIP3    H224687   0.996   1.272   7.763
  412TIP3   OH224688   1.344   0.678   6.640
  412TIP3    H124689   1.426   0.635   6.664
  412TIP3    H224690   1.357   0.704   6.549
  413TIP3   OH224691   0.458   1.072   7.168
  413TIP3    H124692   0.503   1.069   7.084
  413TIP3    H224693   0.384   1.012   7.159
  414TIP3   OH224694   1.075   1.246   6.560
  414TIP3    H124695   1.032   1.332   6.557
  414TIP3    H224696   1.157   1.259   6.513
  415TIP3   OH224697   0.163   0.864   7.762
  415TIP3    H124698   0.162   0.851   7.857
  415TIP3    H224699   0.072   0.847   7.735
  416TIP3   OH224700   0.795   0.879   7.917
  416TIP3    H124701   0.737   0.851   7.846
  416TIP3    H224702   0.877   0.833   7.901
  417TIP3   OH224703   1.230   1.442   7.751
  417TIP3    H124704   1.138   1.436   7.725
  417TIP3    H224705   1.227   1.456   7.846
  418TIP3   OH224706   1.785   0.616   6.557
  418TIP3    H124707   1.744   0.572   6.482
  418TIP3    H224708   1.793   0.707   6.530
  419TIP3   OH224709   1.837   1.261   7.842
  419TIP3    H124710   1.746   1.249   7.816
  419TIP3    H224711   1.887   1.231   7.766
  420TIP3   OH224712   1.608   1.496   6.539
  420TIP3    H124713   1.586   1.404   6.558
  420TIP3    H224714   1.676   1.491   6.472
  421TIP3   OH224715   1.372   1.007   7.287
  421TIP3    H124716   1.278   0.991   7.285
  421TIP3    H224717   1.410   0.932   7.240
  422TIP3   OH224718   0.602   1.424   6.952
  422TIP3    H124719   0.630   1.506   6.912
  422TIP3    H224720   0.507   1.421   6.936
  423TIP3   OH224721   0.227   0.954   6.542
  423TIP3    H124722   0.265   1.042   6.530
  423TIP3    H224723   0.150   0.954   6.486
  424TIP3   OH224724   0.747   1.189   6.945
  424TIP3    H124725   0.698   1.270   6.930
  424TIP3    H224726   0.684   1.119   6.927
  425TIP3   OH224727   0.829   1.599   7.543
  425TIP3    H124728   0.887   1.672   7.520
  425TIP3    H224729   0.884   1.541   7.597
  426TIP3   OH224730   0.649   1.679   6.835
  426TIP3    H124731   0.555   1.690   6.853
  426TIP3    H224732   0.689   1.759   6.866
  427TIP3   OH224733   1.115   1.200   7.494
  427TIP3    H124734   1.087   1.186   7.584
  427TIP3    H224735   1.157   1.118   7.467
  428TIP3   OH224736   1.324   1.295   6.452
  428TIP3    H124737   1.394   1.259   6.507
  428TIP3    H224738   1.334   1.252   6.368
  429TIP3   OH224739   1.423   1.651   7.736
  429TIP3    H124740   1.348   1.595   7.717
  429TIP3    H224741   1.422   1.717   7.667
  430TIP3   OH224742   1.832   1.754   6.484
  430TIP3    H124743   1.848   1.684   6.422
  430TIP3    H224744   1.786   1.821   6.434
  431TIP3   OH224745   0.235   0.409   7.676
  431TIP3    H124746   0.186   0.436   7.753
  431TIP3    H224747   0.186   0.335   7.641
  432TIP3   OH224748   1.518   1.200   6.635
  432TIP3    H124749   1.473   1.127   6.678
  432TIP3    H224750   1.610   1.173   6.633
  433TIP3   OH224751   0.235   1.563   7.542
  433TIP3    H124752   0.254   1.488   7.598
  433TIP3    H224753   0.219   1.635   7.603
  434TIP3   OH224754   0.712   1.392   6.463
  434TIP3    H124755   0.792   1.358   6.503
  434TIP3    H224756   0.702   1.480   6.499
  435TIP3   OH224757   0.356   1.192   6.525
  435TIP3    H124758   0.294   1.224   6.591
  435TIP3    H224759   0.379   1.270   6.474
  436TIP3   OH224760   1.207   0.294   7.578
  436TIP3    H124761   1.234   0.366   7.636
  436TIP3    H224762   1.128   0.259   7.618
  437TIP3   OH224763   1.221   0.299   6.725
  437TIP3    H124764   1.209   0.339   6.639
  437TIP3    H224765   1.252   0.371   6.780
  438TIP3   OH224766   0.966   1.500   6.586
  438TIP3    H124767   0.891   1.558   6.571
  438TIP3    H224768   0.996   1.521   6.674
  439TIP3   OH224769   0.931   0.522   6.780
  439TIP3    H124770   1.000   0.588   6.786
  439TIP3    H224771   0.908   0.501   6.870
  440TIP3   OH224772   0.986   0.596   7.677
  440TIP3    H124773   0.990   0.643   7.761
  440TIP3    H224774   0.992   0.504   7.701
  441TIP3   OH224775   0.986   0.219   6.848
  441TIP3    H124776   0.971   0.295   6.904
  441TIP3    H224777   1.067   0.240   6.800
  442TIP3   OH224778   0.731   1.646   6.572
  442TIP3    H124779   0.726   1.735   6.539
  442TIP3    H224780   0.690   1.650   6.659
  443TIP3   OH224781   0.644   0.220   6.447
  443TIP3    H124782   0.557   0.260   6.454
  443TIP3    H224783   0.692   0.255   6.522
  444TIP3   OH224784   1.557   0.398   7.725
  444TIP3    H124785   1.464   0.421   7.728
  444TIP3    H224786   1.566   0.346   7.645
  445TIP3   OH224787   1.460   0.768   7.166
  445TIP3    H124788   1.375   0.729   7.147
  445TIP3    H224789   1.506   0.702   7.218
  446TIP3   OH224790   0.444   1.414   6.379
  446TIP3    H124791   0.438   1.508   6.359
  446TIP3    H224792   0.536   1.400   6.401
  447TIP3   OH224793   1.560   1.701   7.321
  447TIP3    H124794   1.546   1.774   7.262
  447TIP3    H224795   1.655   1.698   7.334
  448TIP3   OH224796   0.321   0.190   7.154
  448TIP3    H124797   0.286   0.185   7.065
  448TIP3    H224798   0.312   0.101   7.189
  449TIP3   OH224799   0.219   1.505   6.836
  449TIP3    H124800   0.132   1.506   6.876
  449TIP3    H224801   0.208   1.552   6.754
  450TIP3   OH224802   0.186   1.755   7.976
  450TIP3    H124803   0.234   1.762   8.058
  450TIP3    H224804   0.202   1.665   7.946
  451TIP3   OH224805   0.606   1.620   8.124
  451TIP3    H124806   0.678   1.559   8.137
  451TIP3    H224807   0.565   1.592   8.042
  452TIP3   OH224808   1.218   1.489   8.023
  452TIP3    H124809   1.209   1.403   8.064
  452TIP3    H224810   1.301   1.524   8.057
  453TIP3   OH224811   0.155   1.128   8.044
  453TIP3    H124812   0.168   1.035   8.029
  453TIP3    H224813   0.060   1.140   8.039
  454TIP3   OH224814   0.793   1.152   7.980
  454TIP3    H124815   0.761   1.198   7.902
  454TIP3    H224816   0.799   1.060   7.953
  455TIP3   OH224817   1.346   1.147   7.779
  455TIP3    H124818   1.424   1.193   7.749
  455TIP3    H224819   1.273   1.206   7.757
  456TIP3   OH224820   0.224   0.853   8.037
  456TIP3    H124821   0.317   0.832   8.027
  456TIP3    H224822   0.213   0.867   8.131
  457TIP3   OH224823   0.620   0.774   7.716
  457TIP3    H124824   0.550   0.839   7.707
  457TIP3    H224825   0.688   0.803   7.655
  458TIP3   OH224826   1.131   1.016   8.064
  458TIP3    H124827   1.193   0.970   8.007
  458TIP3    H224828   1.090   0.948   8.116
  459TIP3   OH224829   0.658   0.529   7.828
  459TIP3    H124830   0.664   0.466   7.756
  459TIP3    H224831   0.646   0.614   7.785
  460TIP3   OH224832   0.685   0.378   7.593
  460TIP3    H124833   0.741   0.421   7.529
  460TIP3    H224834   0.598   0.381   7.554
  461TIP3   OH224835   0.838   0.885   7.597
  461TIP3    H124836   0.928   0.886   7.565
  461TIP3    H224837   0.797   0.962   7.557
  462TIP3   OH224838   1.252   0.671   8.086
  462TIP3    H124839   1.267   0.577   8.095
  462TIP3    H224840   1.338   0.708   8.068
  463TIP3   OH224841   1.409   0.955   7.955
  463TIP3    H124842   1.376   1.027   7.901
  463TIP3    H224843   1.502   0.950   7.933
  464TIP3   OH224844   0.516   0.586   8.063
  464TIP3    H124845   0.439   0.529   8.057
  464TIP3    H224846   0.558   0.578   7.978
  465TIP3   OH224847   0.711   0.106   7.600
  465TIP3    H124848   0.702   0.201   7.607
  465TIP3    H224849   0.641   0.079   7.541
  466TIP3   OH224850   0.865   0.487   8.006
  466TIP3    H124851   0.821   0.451   8.083
  466TIP3    H224852   0.796   0.497   7.941
  467TIP3   OH224853   1.130   0.433   7.928
  467TIP3    H124854   1.041   0.427   7.964
  467TIP3    H224855   1.184   0.384   7.990
  468TIP3   OH224856   1.323   0.339   8.107
  468TIP3    H124857   1.313   0.245   8.098
  468TIP3    H224858   1.291   0.358   8.196
  469TIP3   OH224859   0.318   0.401   8.063
  469TIP3    H124860   0.311   0.337   7.992
  469TIP3    H224861   0.307   0.350   8.143
  470TIP3   OH224862   0.730   0.086   7.928
  470TIP3    H124863   0.732  -0.010   7.927
  470TIP3    H224864   0.762   0.110   7.841
  471TIP3   OH224865   0.809   0.161   8.183
  471TIP3    H124866   0.795   0.127   8.095
  471TIP3    H224867   0.752   0.238   8.188
  472TIP3   OH224868   0.764   1.913   6.487
  472TIP3    H124869   0.764   2.005   6.512
  472TIP3    H224870   0.689   1.904   6.429
  473TIP3   OH224871   0.153   1.470   6.376
  473TIP3    H124872   0.238   1.442   6.342
  473TIP3    H224873   0.113   1.518   6.304
  474TIP3   OH224874   0.031   1.952   6.907
  474TIP3    H124875  -0.047   1.916   6.866
  474TIP3    H224876   0.054   1.889   6.975
  475TIP3   OH224877   0.099   1.754   7.088
  475TIP3    H124878   0.062   1.681   7.037
  475TIP3    H224879   0.144   1.711   7.161
  476TIP3   OH224880   1.826   1.730   7.380
  476TIP3    H124881   1.835   1.728   7.475
  476TIP3    H224882   1.910   1.762   7.348
  477TIP3   OH224883   1.791   1.673   7.656
  477TIP3    H124884   1.730   1.609   7.619
  477TIP3    H224885   1.827   1.630   7.734
  478TIP3   OH224886   1.663   1.271   8.189
  478TIP3    H124887   1.575   1.286   8.225
  478TIP3    H224888   1.707   1.356   8.198
  479TIP3   OH224889   1.779   1.100   6.653
  479TIP3    H124890   1.846   1.168   6.664
  479TIP3    H224891   1.792   1.042   6.728
  480TIP3   OH224892   1.826   0.914   6.853
  480TIP3    H124893   1.741   0.883   6.884
  480TIP3    H224894   1.874   0.935   6.933
  481TIP3   OH224895   1.821   1.206   7.379
  481TIP3    H124896   1.859   1.134   7.328
  481TIP3    H224897   1.846   1.285   7.330
  482TIP3   OH224898   1.604   1.484   7.579
  482TIP3    H124899   1.525   1.526   7.614
  482TIP3    H224900   1.580   1.460   7.489
  483TIP3   OH224901   1.790   0.886   6.477
  483TIP3    H124902   1.722   0.901   6.412
  483TIP3    H224903   1.784   0.960   6.537
  484TIP3   OH224904   1.588   0.795   6.923
  484TIP3    H124905   1.575   0.708   6.886
  484TIP3    H224906   1.547   0.791   7.009
  485TIP3   OH224907   0.151   1.047   7.304
  485TIP3    H124908   0.180   1.019   7.217
  485TIP3    H224909   0.201   0.992   7.365
  486TIP3   OH224910   1.677   0.968   7.880
  486TIP3    H124911   1.727   0.887   7.890
  486TIP3    H224912   1.702   1.001   7.794
  487TIP3   OH224913   1.794   0.735   7.946
  487TIP3    H124914   1.714   0.692   7.917
  487TIP3    H224915   1.861   0.666   7.939
  488TIP3   OH224916   1.672   0.395   6.321
  488TIP3    H124917   1.702   0.329   6.259
  488TIP3    H224918   1.580   0.410   6.298
  489TIP3   OH224919   1.580   0.560   6.745
  489TIP3    H124920   1.606   0.468   6.735
  489TIP3    H224921   1.641   0.609   6.690
  490TIP3   OH224922   1.623   0.583   7.301
  490TIP3    H124923   1.714   0.608   7.283
  490TIP3    H224924   1.610   0.602   7.394
  491TIP3   OH224925   1.630   0.684   7.561
  491TIP3    H124926   1.545   0.711   7.597
  491TIP3    H224927   1.679   0.766   7.552
  492TIP3   OH224928   0.090   0.426   7.917
  492TIP3    H124929   0.155   0.453   7.982
  492TIP3    H224930   0.102   0.332   7.909
  493TIP3   OH224931   1.914   0.108   8.070
  493TIP3    H124932   1.991   0.095   8.014
  493TIP3    H224933   1.861   0.172   8.023
  494TIP3   OH224934   1.655   0.288   6.794
  494TIP3    H124935   1.604   0.328   6.864
  494TIP3    H224936   1.591   0.237   6.743
  495TIP3   OH224937   0.165   0.334   7.338
  495TIP3    H124938   0.218   0.293   7.270
  495TIP3    H224939   0.160   0.426   7.312
  496TIP3   OH224940   0.068   0.683   7.374
  496TIP3    H124941   0.109   0.675   7.288
  496TIP3    H224942   0.117   0.753   7.417
  497TIP3   OH224943   1.769   0.302   7.943
  497TIP3    H124944   1.699   0.332   8.000
  497TIP3    H224945   1.724   0.262   7.868
  498TIP3   OH224946   1.540   1.772   6.916
  498TIP3    H124947   1.598   1.746   6.845
  498TIP3    H224948   1.598   1.788   6.990
  499TIP3   OH224949   0.081   0.207   7.565
  499TIP3    H124950  -0.014   0.203   7.558
  499TIP3    H224951   0.110   0.243   7.481
  500TIP3   OH224952   0.233   1.485   7.937
  500TIP3    H124953   0.230   1.435   7.856
  500TIP3    H224954   0.179   1.436   7.999
  501TIP3   OH224955   0.569   1.563   7.626
  501TIP3    H124956   0.530   1.647   7.601
  501TIP3    H224957   0.661   1.571   7.599
  502TIP3   OH224958   0.944   1.694   7.894
  502TIP3    H124959   0.954   1.676   7.988
  502TIP3    H224960   1.024   1.740   7.870
  503TIP3   OH224961   1.185   1.826   7.857
  503TIP3    H124962   1.251   1.773   7.812
  503TIP3    H224963   1.228   1.853   7.939
  504TIP3   OH224964   1.705   0.129   7.724
  504TIP3    H124965   1.648   0.161   7.653
  504TIP3    H224966   1.684   0.036   7.730
  505TIP3   OH224967   0.252   1.878   7.645
  505TIP3    H124968   0.191   1.925   7.589
  505TIP3    H224969   0.255   1.930   7.726
  506TIP3   OH224970   0.511   1.821   7.565
  506TIP3    H124971   0.419   1.838   7.586
  506TIP3    H224972   0.520   1.848   7.473
  507TIP3   OH224973   0.990   1.809   7.457
  507TIP3    H124974   0.933   1.836   7.384
  507TIP3    H224975   0.996   1.888   7.512
  508TIP3   OH224976   1.213   1.686   7.546
  508TIP3    H124977   1.131   1.722   7.513
  508TIP3    H224978   1.279   1.751   7.520
  509TIP3   OH224979   1.455   1.844   7.533
  509TIP3    H124980   1.462   1.935   7.505
  509TIP3    H224981   1.489   1.794   7.459
  510TIP3   OH224982   0.269   1.761   7.333
  510TIP3    H124983   0.241   1.697   7.399
  510TIP3    H224984   0.333   1.714   7.280
  511TIP3   OH224985   0.444   1.607   7.192
  511TIP3    H124986   0.425   1.515   7.211
  511TIP3    H224987   0.535   1.619   7.221
  512TIP3   OH224988   0.708   1.617   7.292
  512TIP3    H124989   0.707   1.526   7.261
  512TIP3    H224990   0.740   1.612   7.382
  513TIP3   OH224991   1.075   0.251   7.178
  513TIP3    H124992   0.997   0.197   7.183
  513TIP3    H224993   1.132   0.204   7.116
  514TIP3   OH224994   1.505   0.117   7.195
  514TIP3    H124995   1.579   0.158   7.151
  514TIP3    H224996   1.429   0.144   7.143
  515TIP3   OH224997   1.747   0.184   7.030
  515TIP3    H124998   1.718   0.205   6.941
  515TIP3    H224999   1.813   0.251   7.050
  516TIP3   OH225000   0.217   0.117   6.899
  516TIP3    H125001   0.201   0.164   6.817
  516TIP3    H225002   0.287   0.055   6.878
  517TIP3   OH225003   0.118   0.085   6.446
  517TIP3    H125004   0.171   0.149   6.399
  517TIP3    H225005   0.032   0.126   6.455
  518TIP3   OH225006   0.743   0.120   6.932
  518TIP3    H125007   0.816   0.156   6.882
  518TIP3    H225008   0.765   0.137   7.024
  519TIP3   OH225009   1.277   0.134   7.021
  519TIP3    H125010   1.265   0.164   6.931
  519TIP3    H225011   1.260   0.040   7.017
  520TIP3   OH225012   1.452   0.151   6.684
  520TIP3    H125013   1.370   0.199   6.681
  520TIP3    H225014   1.427   0.059   6.689
  521TIP3   OH225015   0.195   1.648   6.607
  521TIP3    H125016   0.175   1.597   6.529
  521TIP3    H225017   0.211   1.737   6.575
  522TIP3   OH225018   0.823   0.313   6.636
  522TIP3    H125019   0.867   0.246   6.690
  522TIP3    H225020   0.854   0.396   6.672
  523TIP3   OH225021   1.712   1.693   6.717
  523TIP3    H125022   1.672   1.611   6.689
  523TIP3    H225023   1.756   1.726   6.638
  524TIP3   OH225024   0.223   0.180   7.910
  524TIP3    H125025   0.190   0.107   7.858
  524TIP3    H225026   0.306   0.150   7.945
  525TIP3   OH225027   0.468   0.113   8.024
  525TIP3    H125028   0.555   0.133   7.990
  525TIP3    H225029   0.465   0.017   8.028
  526TIP3   OH225030   1.295   0.073   8.060
  526TIP3    H125031   1.283  -0.012   8.103
  526TIP3    H225032   1.306   0.051   7.967
  527TIP3   OH225033   1.614   1.622   7.933
  527TIP3    H125034   1.551   1.617   7.861
  527TIP3    H225035   1.610   1.713   7.962
  528TIP3   OH225036   3.008   0.993   6.988
  528TIP3    H125037   3.033   1.084   7.006
  528TIP3    H225038   2.973   0.994   6.900
  529TIP3   OH225039   3.000   0.960   7.335
  529TIP3    H125040   3.008   0.889   7.399
  529TIP3    H225041   2.958   0.919   7.259
  530TIP3   OH225042   2.178   0.907   7.442
  530TIP3    H125043   2.192   0.814   7.459
  530TIP3    H225044   2.228   0.951   7.511
  531TIP3   OH225045   3.312   1.233   7.134
  531TIP3    H125046   3.300   1.150   7.180
  531TIP3    H225047   3.341   1.294   7.202
  532TIP3   OH225048   2.326   1.349   7.277
  532TIP3    H125049   2.294   1.263   7.248
  532TIP3    H225050   2.417   1.352   7.250
  533TIP3   OH225051   1.965   0.680   6.792
  533TIP3    H125052   1.927   0.766   6.811
  533TIP3    H225053   1.901   0.638   6.734
  534TIP3   OH225054   2.018   0.940   7.057
  534TIP3    H125055   2.055   0.853   7.075
  534TIP3    H225056   2.094   0.995   7.038
  535TIP3   OH225057   3.030   1.743   7.123
  535TIP3    H125058   3.093   1.682   7.084
  535TIP3    H225059   2.982   1.690   7.187
  536TIP3   OH225060   2.782   1.206   7.311
  536TIP3    H125061   2.815   1.165   7.230
  536TIP3    H225062   2.860   1.220   7.364
  537TIP3   OH225063   3.682   0.318   7.377
  537TIP3    H125064   3.678   0.388   7.442
  537TIP3    H225065   3.691   0.364   7.293
  538TIP3   OH225066   3.130   0.611   7.338
  538TIP3    H125067   3.141   0.516   7.342
  538TIP3    H225068   3.181   0.639   7.262
  539TIP3   OH225069   2.461   0.405   7.062
  539TIP3    H125070   2.486   0.488   7.021
  539TIP3    H225071   2.413   0.358   6.993
  540TIP3   OH225072   2.116   0.693   7.134
  540TIP3    H125073   2.181   0.654   7.192
  540TIP3    H225074   2.139   0.660   7.047
  541TIP3   OH225075   2.599   0.816   7.083
  541TIP3    H125076   2.685   0.787   7.114
  541TIP3    H225077   2.571   0.747   7.023
  542TIP3   OH225078   3.669   0.461   7.617
  542TIP3    H125079   3.620   0.542   7.604
  542TIP3    H225080   3.727   0.479   7.690
  543TIP3   OH225081   2.323   0.342   7.469
  543TIP3    H125082   2.297   0.401   7.398
  543TIP3    H225083   2.251   0.345   7.531
  544TIP3   OH225084   2.994   1.263   6.903
  544TIP3    H125085   2.971   1.221   6.820
  544TIP3    H225086   2.992   1.356   6.884
  545TIP3   OH225087   2.576   1.093   7.451
  545TIP3    H125088   2.521   1.163   7.487
  545TIP3    H225089   2.644   1.139   7.402
  546TIP3   OH225090   3.325   0.459   7.121
  546TIP3    H125091   3.307   0.393   7.188
  546TIP3    H225092   3.421   0.460   7.113
  547TIP3   OH225093   2.299   0.520   7.255
  547TIP3    H125094   2.364   0.567   7.307
  547TIP3    H225095   2.348   0.481   7.183
  548TIP3   OH225096   2.417   1.300   7.543
  548TIP3    H125097   2.390   1.334   7.458
  548TIP3    H225098   2.337   1.303   7.596
  549TIP3   OH225099   1.981   1.288   6.684
  549TIP3    H125100   2.010   1.322   6.600
  549TIP3    H225101   2.012   1.352   6.748
  550TIP3   OH225102   3.378   1.442   7.333
  550TIP3    H125103   3.286   1.442   7.358
  550TIP3    H225104   3.392   1.525   7.289
  551TIP3   OH225105   3.457   0.182   7.482
  551TIP3    H125106   3.391   0.181   7.413
  551TIP3    H225107   3.535   0.219   7.439
  552TIP3   OH225108   2.717   0.097   7.176
  552TIP3    H125109   2.714   0.006   7.206
  552TIP3    H225110   2.645   0.140   7.222
  553TIP3   OH225111   3.227   1.593   7.013
  553TIP3    H125112   3.242   1.507   6.974
  553TIP3    H225113   3.304   1.644   6.987
  554TIP3   OH225114   3.301   1.361   6.884
  554TIP3    H125115   3.315   1.301   6.811
  554TIP3    H225116   3.299   1.305   6.962
  555TIP3   OH225117   3.494   1.224   7.686
  555TIP3    H125118   3.484   1.167   7.610
  555TIP3    H225119   3.505   1.311   7.649
  556TIP3   OH225120   2.969   1.012   6.707
  556TIP3    H125121   2.930   0.944   6.653
  556TIP3    H225122   3.060   0.985   6.719
  557TIP3   OH225123   3.681   0.902   7.510
  557TIP3    H125124   3.608   0.962   7.498
  557TIP3    H225125   3.736   0.914   7.433
  558TIP3   OH225126   3.271   0.781   7.699
  558TIP3    H125127   3.273   0.866   7.743
  558TIP3    H225128   3.201   0.789   7.635
  559TIP3   OH225129   2.427   1.006   6.979
  559TIP3    H125130   2.394   0.973   6.896
  559TIP3    H225131   2.491   0.940   7.007
  560TIP3   OH225132   2.591   1.379   7.214
  560TIP3    H125133   2.589   1.361   7.120
  560TIP3    H225134   2.659   1.321   7.247
  561TIP3   OH225135   2.463   0.884   7.312
  561TIP3    H125136   2.513   0.871   7.231
  561TIP3    H225137   2.504   0.960   7.354
  562TIP3   OH225138   3.125   1.455   7.431
  562TIP3    H125139   3.099   1.510   7.505
  562TIP3    H225140   3.081   1.371   7.446
  563TIP3   OH225141   2.572   1.331   7.776
  563TIP3    H125142   2.510   1.386   7.823
  563TIP3    H225143   2.531   1.315   7.691
  564TIP3   OH225144   2.258   0.954   7.718
  564TIP3    H125145   2.266   1.025   7.782
  564TIP3    H225146   2.165   0.931   7.720
  565TIP3   OH225147   2.950   1.530   6.818
  565TIP3    H125148   2.918   1.612   6.856
  565TIP3    H225149   2.915   1.530   6.729
  566TIP3   OH225150   2.388   1.503   7.889
  566TIP3    H125151   2.391   1.546   7.804
  566TIP3    H225152   2.295   1.494   7.908
  567TIP3   OH225153   3.570   0.128   6.550
  567TIP3    H125154   3.483   0.166   6.550
  567TIP3    H225155   3.618   0.176   6.483
  568TIP3   OH225156   2.315   0.901   6.747
  568TIP3    H125157   2.327   0.937   6.660
  568TIP3    H225158   2.222   0.880   6.752
  569TIP3   OH225159   3.602   1.487   6.342
  569TIP3    H125160   3.617   1.579   6.319
  569TIP3    H225161   3.662   1.438   6.284
  570TIP3   OH225162   1.960   1.163   7.618
  570TIP3    H125163   1.910   1.177   7.538
  570TIP3    H225164   1.967   1.068   7.626
  571TIP3   OH225165   1.959   1.432   7.280
  571TIP3    H125166   2.050   1.406   7.266
  571TIP3    H225167   1.962   1.488   7.358
  572TIP3   OH225168   3.755   1.522   7.891
  572TIP3    H125169   3.746   1.429   7.870
  572TIP3    H225170   3.668   1.548   7.923
  573TIP3   OH225171   2.822   1.447   7.764
  573TIP3    H125172   2.818   1.529   7.813
  573TIP3    H225173   2.734   1.410   7.771
  574TIP3   OH225174   2.953   1.839   6.725
  574TIP3    H125175   2.931   1.826   6.633
  574TIP3    H225176   2.903   1.916   6.752
  575TIP3   OH225177   2.250   1.699   6.940
  575TIP3    H125178   2.276   1.665   7.025
  575TIP3    H225179   2.191   1.633   6.904
  576TIP3   OH225180   3.202   1.754   6.453
  576TIP3    H125181   3.249   1.693   6.396
  576TIP3    H225182   3.215   1.720   6.541
  577TIP3   OH225183   3.189   1.694   6.725
  577TIP3    H125184   3.099   1.726   6.738
  577TIP3    H225185   3.190   1.608   6.766
  578TIP3   OH225186   3.414   0.633   7.923
  578TIP3    H125187   3.371   0.688   7.858
  578TIP3    H225188   3.419   0.547   7.882
  579TIP3   OH225189   2.183   1.308   7.688
  579TIP3    H125190   2.203   1.270   7.773
  579TIP3    H225191   2.106   1.261   7.658
  580TIP3   OH225192   2.485   0.218   7.275
  580TIP3    H125193   2.473   0.273   7.198
  580TIP3    H225194   2.426   0.255   7.341
  581TIP3   OH225195   2.837   0.145   7.714
  581TIP3    H125196   2.881   0.060   7.706
  581TIP3    H225197   2.767   0.142   7.650
  582TIP3   OH225198   3.189   0.505   7.712
  582TIP3    H125199   3.123   0.500   7.780
  582TIP3    H225200   3.204   0.599   7.700
  583TIP3   OH225201   3.280   1.002   6.261
  583TIP3    H125202   3.274   0.982   6.167
  583TIP3    H225203   3.366   1.044   6.270
  584TIP3   OH225204   2.899   0.322   6.360
  584TIP3    H125205   2.868   0.302   6.272
  584TIP3    H225206   2.995   0.321   6.351
  585TIP3   OH225207   2.462   0.644   7.437
  585TIP3    H125208   2.388   0.649   7.498
  585TIP3    H225209   2.466   0.732   7.399
  586TIP3   OH225210   2.478   0.636   6.912
  586TIP3    H125211   2.384   0.646   6.905
  586TIP3    H225212   2.509   0.626   6.822
  587TIP3   OH225213   2.889   0.710   7.924
  587TIP3    H125214   2.840   0.636   7.959
  587TIP3    H225215   2.977   0.700   7.959
  588TIP3   OH225216   2.223   0.657   7.575
  588TIP3    H125217   2.208   0.704   7.657
  588TIP3    H225218   2.181   0.572   7.589
  589TIP3   OH225219   2.437   0.492   6.251
  589TIP3    H125220   2.410   0.506   6.160
  589TIP3    H225221   2.525   0.530   6.256
  590TIP3   OH225222   1.928   0.388   7.012
  590TIP3    H125223   1.963   0.410   7.098
  590TIP3    H225224   1.989   0.429   6.950
  591TIP3   OH225225   1.992   0.427   6.586
  591TIP3    H125226   2.050   0.451   6.514
  591TIP3    H225227   1.920   0.490   6.581
  592TIP3   OH225228   3.046   0.770   7.536
  592TIP3    H125229   3.078   0.713   7.466
  592TIP3    H225230   2.975   0.720   7.576
  593TIP3   OH225231   2.754   0.389   7.027
  593TIP3    H125232   2.668   0.389   7.068
  593TIP3    H225233   2.813   0.360   7.096
  594TIP3   OH225234   2.201   0.589   6.897
  594TIP3    H125235   2.124   0.613   6.845
  594TIP3    H225236   2.227   0.503   6.862
  595TIP3   OH225237   2.571   0.599   6.643
  595TIP3    H125238   2.658   0.559   6.644
  595TIP3    H225239   2.585   0.688   6.609
  596TIP3   OH225240   3.140   0.336   7.351
  596TIP3    H125241   3.087   0.334   7.431
  596TIP3    H225242   3.081   0.304   7.282
  597TIP3   OH225243   3.482   1.883   7.990
  597TIP3    H125244   3.503   1.916   7.903
  597TIP3    H225245   3.555   1.911   8.045
  598TIP3   OH225246   2.226   1.149   7.922
  598TIP3    H125247   2.293   1.146   7.991
  598TIP3    H225248   2.143   1.146   7.969
  599TIP3   OH225249   2.823   0.698   7.197
  599TIP3    H125250   2.894   0.657   7.147
  599TIP3    H225251   2.802   0.635   7.265
  600TIP3   OH225252   2.309   0.342   6.835
  600TIP3    H125253   2.253   0.266   6.851
  600TIP3    H225254   2.355   0.321   6.754
  601TIP3   OH225255   2.718   0.547   7.418
  601TIP3    H125256   2.634   0.592   7.424
  601TIP3    H225257   2.767   0.579   7.494
  602TIP3   OH225258   3.472   1.073   7.458
  602TIP3    H125259   3.529   1.129   7.406
  602TIP3    H225260   3.402   1.047   7.398
  603TIP3   OH225261   2.909   1.173   7.739
  603TIP3    H125262   2.904   1.130   7.825
  603TIP3    H225263   2.872   1.260   7.754
  604TIP3   OH225264   2.274   1.089   7.195
  604TIP3    H125265   2.328   1.067   7.120
  604TIP3    H225266   2.285   1.015   7.256
  605TIP3   OH225267   1.991   0.889   7.730
  605TIP3    H125268   1.986   0.837   7.810
  605TIP3    H225269   1.915   0.862   7.678
  606TIP3   OH225270   2.672   0.884   7.921
  606TIP3    H125271   2.609   0.853   7.856
  606TIP3    H225272   2.753   0.838   7.900
  607TIP3   OH225273   3.109   1.435   7.751
  607TIP3    H125274   3.016   1.431   7.728
  607TIP3    H225275   3.110   1.455   7.844
  608TIP3   OH225276   3.648   0.603   6.563
  608TIP3    H125277   3.589   0.560   6.501
  608TIP3    H225278   3.651   0.694   6.534
  609TIP3   OH225279   3.723   1.249   7.838
  609TIP3    H125280   3.633   1.244   7.804
  609TIP3    H225281   3.778   1.227   7.763
  610TIP3   OH225282   3.566   1.478   6.617
  610TIP3    H125283   3.547   1.388   6.644
  610TIP3    H225284   3.577   1.472   6.522
  611TIP3   OH225285   3.276   0.987   7.279
  611TIP3    H125286   3.181   0.986   7.289
  611TIP3    H225287   3.296   0.908   7.229
  612TIP3   OH225288   2.482   1.429   6.937
  612TIP3    H125289   2.504   1.511   6.894
  612TIP3    H225290   2.393   1.409   6.907
  613TIP3   OH225291   2.065   0.833   6.425
  613TIP3    H125292   2.119   0.908   6.450
  613TIP3    H225293   1.975   0.862   6.439
  614TIP3   OH225294   2.628   1.203   6.991
  614TIP3    H125295   2.593   1.278   6.944
  614TIP3    H225296   2.563   1.133   6.978
  615TIP3   OH225297   2.704   1.605   7.550
  615TIP3    H125298   2.765   1.674   7.526
  615TIP3    H225299   2.757   1.543   7.600
  616TIP3   OH225300   2.493   1.674   6.810
  616TIP3    H125301   2.404   1.696   6.836
  616TIP3    H225302   2.547   1.746   6.842
  617TIP3   OH225303   3.003   1.206   7.481
  617TIP3    H125304   2.976   1.183   7.569
  617TIP3    H225305   3.021   1.122   7.438
  618TIP3   OH225306   3.326   1.624   7.719
  618TIP3    H125307   3.245   1.574   7.710
  618TIP3    H225308   3.314   1.700   7.662
  619TIP3   OH225309   2.108   0.411   7.639
  619TIP3    H125310   2.016   0.435   7.628
  619TIP3    H225311   2.105   0.336   7.699
  620TIP3   OH225312   3.359   1.168   6.681
  620TIP3    H125313   3.323   1.083   6.656
  620TIP3    H225314   3.453   1.160   6.666
  621TIP3   OH225315   2.088   1.556   7.513
  621TIP3    H125316   2.144   1.485   7.543
  621TIP3    H225317   2.058   1.599   7.593
  622TIP3   OH225318   2.990   0.353   7.589
  622TIP3    H125319   3.069   0.381   7.635
  622TIP3    H225320   2.952   0.285   7.645
  623TIP3   OH225321   2.849   1.546   6.562
  623TIP3    H125322   2.754   1.555   6.557
  623TIP3    H225323   2.883   1.615   6.506
  624TIP3   OH225324   2.865   0.600   7.649
  624TIP3    H125325   2.872   0.617   7.743
  624TIP3    H225326   2.901   0.512   7.638
  625TIP3   OH225327   2.843   0.243   6.812
  625TIP3    H125328   2.808   0.294   6.885
  625TIP3    H225329   2.923   0.289   6.786
  626TIP3   OH225330   2.581   1.614   6.549
  626TIP3    H125331   2.602   1.707   6.536
  626TIP3    H225332   2.534   1.611   6.632
  627TIP3   OH225333   2.457   0.343   6.595
  627TIP3    H125334   2.473   0.437   6.608
  627TIP3    H225335   2.544   0.305   6.586
  628TIP3   OH225336   3.435   0.405   7.778
  628TIP3    H125337   3.350   0.416   7.735
  628TIP3    H225338   3.495   0.384   7.707
  629TIP3   OH225339   3.333   0.732   7.160
  629TIP3    H125340   3.301   0.656   7.110
  629TIP3    H225341   3.404   0.697   7.214
  630TIP3   OH225342   3.447   1.736   7.327
  630TIP3    H125343   3.440   1.813   7.271
  630TIP3    H225344   3.541   1.720   7.336
  631TIP3   OH225345   2.179   0.175   7.180
  631TIP3    H125346   2.166   0.176   7.085
  631TIP3    H225347   2.172   0.082   7.204
  632TIP3   OH225348   2.065   1.516   6.833
  632TIP3    H125349   1.998   1.548   6.894
  632TIP3    H225350   2.058   1.574   6.758
  633TIP3   OH225351   2.012   1.800   7.972
  633TIP3    H125352   2.075   1.774   8.039
  633TIP3    H225353   1.978   1.718   7.938
  634TIP3   OH225354   2.457   1.604   8.135
  634TIP3    H125355   2.540   1.558   8.149
  634TIP3    H225356   2.428   1.576   8.049
  635TIP3   OH225357   2.900   1.653   6.202
  635TIP3    H125358   2.858   1.617   6.124
  635TIP3    H225359   2.990   1.620   6.199
  636TIP3   OH225360   3.096   1.492   8.022
  636TIP3    H125361   3.088   1.404   8.060
  636TIP3    H225362   3.181   1.524   8.053
  637TIP3   OH225363   3.328   1.571   6.299
  637TIP3    H125364   3.412   1.525   6.304
  637TIP3    H225365   3.284   1.531   6.224
  638TIP3   OH225366   1.979   1.165   8.060
  638TIP3    H125367   1.930   1.086   8.084
  638TIP3    H225368   1.928   1.204   7.989
  639TIP3   OH225369   2.639   1.159   7.983
  639TIP3    H125370   2.621   1.203   7.901
  639TIP3    H225371   2.659   1.068   7.958
  640TIP3   OH225372   3.240   1.157   7.782
  640TIP3    H125373   3.324   1.188   7.748
  640TIP3    H225374   3.177   1.223   7.752
  641TIP3   OH225375   2.137   0.784   7.995
  641TIP3    H125376   2.228   0.753   7.994
  641TIP3    H225377   2.132   0.841   8.071
  642TIP3   OH225378   2.479   0.783   7.737
  642TIP3    H125379   2.405   0.842   7.724
  642TIP3    H225380   2.543   0.811   7.672
  643TIP3   OH225381   3.010   1.017   8.046
  643TIP3    H125382   3.080   0.973   7.997
  643TIP3    H225383   2.972   0.947   8.100
  644TIP3   OH225384   2.536   0.528   7.821
  644TIP3    H125385   2.548   0.469   7.747
  644TIP3    H225386   2.519   0.613   7.781
  645TIP3   OH225387   2.571   0.372   7.590
  645TIP3    H125388   2.630   0.413   7.527
  645TIP3    H225389   2.485   0.374   7.546
  646TIP3   OH225390   2.682   0.884   7.590
  646TIP3    H125391   2.776   0.887   7.573
  646TIP3    H225392   2.647   0.958   7.541
  647TIP3   OH225393   3.131   0.662   8.071
  647TIP3    H125394   3.145   0.568   8.066
  647TIP3    H225395   3.216   0.701   8.050
  648TIP3   OH225396   3.293   0.955   7.950
  648TIP3    H125397   3.264   1.030   7.899
  648TIP3    H225398   3.387   0.949   7.932
  649TIP3   OH225399   2.371   0.585   8.044
  649TIP3    H125400   2.294   0.528   8.032
  649TIP3    H225401   2.419   0.576   7.962
  650TIP3   OH225402   2.591   0.098   7.579
  650TIP3    H125403   2.582   0.191   7.597
  650TIP3    H225404   2.527   0.082   7.509
  651TIP3   OH225405   2.743   0.486   7.998
  651TIP3    H125406   2.693   0.450   8.072
  651TIP3    H225407   2.678   0.498   7.929
  652TIP3   OH225408   2.998   0.439   7.893
  652TIP3    H125409   2.909   0.432   7.928
  652TIP3    H225410   3.053   0.392   7.956
  653TIP3   OH225411   3.168   0.346   8.082
  653TIP3    H125412   3.221   0.269   8.065
  653TIP3    H225413   3.162   0.351   8.178
  654TIP3   OH225414   2.165   0.399   8.038
  654TIP3    H125415   2.162   0.339   7.963
  654TIP3    H225416   2.160   0.342   8.115
  655TIP3   OH225417   2.641   0.093   7.932
  655TIP3    H125418   2.636  -0.002   7.923
  655TIP3    H225419   2.702   0.121   7.863
  656TIP3   OH225420   2.708   0.183   8.185
  656TIP3    H125421   2.699   0.142   8.100
  656TIP3    H225422   2.645   0.255   8.184
  657TIP3   OH225423   2.687   1.864   6.517
  657TIP3    H125424   2.777   1.847   6.489
  657TIP3    H225425   2.689   1.953   6.551
  658TIP3   OH225426   1.882   1.838   6.897
  658TIP3    H125427   1.843   1.796   6.820
  658TIP3    H225428   1.905   1.766   6.955
  659TIP3   OH225429   1.949   1.635   7.073
  659TIP3    H125430   1.913   1.560   7.119
  659TIP3    H225431   2.001   1.681   7.139
  660TIP3   OH225432   3.717   1.719   7.368
  660TIP3    H125433   3.760   1.750   7.448
  660TIP3    H225434   3.779   1.739   7.298
  661TIP3   OH225435   3.675   1.689   7.673
  661TIP3    H125436   3.631   1.625   7.618
  661TIP3    H225437   3.718   1.637   7.741
  662TIP3   OH225438   3.546   1.255   8.212
  662TIP3    H125439   3.456   1.276   8.236
  662TIP3    H225440   3.591   1.339   8.215
  663TIP3   OH225441   3.635   1.140   6.660
  663TIP3    H125442   3.718   1.185   6.644
  663TIP3    H225443   3.649   1.093   6.743
  664TIP3   OH225444   3.675   0.992   6.884
  664TIP3    H125445   3.600   0.932   6.892
  664TIP3    H225446   3.732   0.968   6.957
  665TIP3   OH225447   3.702   1.203   7.371
  665TIP3    H125448   3.752   1.138   7.322
  665TIP3    H225449   3.724   1.287   7.330
  666TIP3   OH225450   3.513   1.477   7.575
  666TIP3    H125451   3.442   1.524   7.618
  666TIP3    H225452   3.480   1.460   7.486
  667TIP3   OH225453   3.679   0.876   6.514
  667TIP3    H125454   3.638   0.908   6.434
  667TIP3    H225455   3.680   0.951   6.573
  668TIP3   OH225456   3.475   0.813   6.931
  668TIP3    H125457   3.495   0.728   6.891
  668TIP3    H225458   3.425   0.791   7.010
  669TIP3   OH225459   1.941   0.959   7.318
  669TIP3    H125460   1.957   0.962   7.224
  669TIP3    H225461   2.028   0.949   7.357
  670TIP3   OH225462   3.564   0.957   7.883
  670TIP3    H125463   3.617   0.878   7.871
  670TIP3    H225464   3.594   1.016   7.813
  671TIP3   OH225465   3.689   0.715   7.886
  671TIP3    H125466   3.606   0.668   7.886
  671TIP3    H225467   3.755   0.646   7.886
  672TIP3   OH225468   3.546   0.573   6.814
  672TIP3    H125469   3.516   0.483   6.817
  672TIP3    H225470   3.574   0.587   6.723
  673TIP3   OH225471   3.531   0.605   7.304
  673TIP3    H125472   3.625   0.615   7.294
  673TIP3    H225473   3.516   0.614   7.399
  674TIP3   OH225474   3.519   0.686   7.577
  674TIP3    H125475   3.435   0.723   7.603
  674TIP3    H225476   3.573   0.762   7.553
  675TIP3   OH225477   1.943   0.513   7.917
  675TIP3    H125478   2.028   0.487   7.953
  675TIP3    H225479   1.889   0.434   7.923
  676TIP3   OH225480   3.814   0.109   8.077
  676TIP3    H125481   3.901   0.113   8.037
  676TIP3    H225482   3.761   0.170   8.025
  677TIP3   OH225483   3.465   0.312   6.804
  677TIP3    H125484   3.494   0.241   6.862
  677TIP3    H225485   3.403   0.269   6.744
  678TIP3   OH225486   2.047   0.397   7.259
  678TIP3    H125487   2.088   0.312   7.241
  678TIP3    H225488   2.121   0.458   7.267
  679TIP3   OH225489   1.877   0.685   7.287
  679TIP3    H125490   1.952   0.663   7.231
  679TIP3    H225491   1.886   0.779   7.304
  680TIP3   OH225492   3.647   0.283   7.943
  680TIP3    H125493   3.562   0.314   7.976
  680TIP3    H225494   3.624   0.234   7.864
  681TIP3   OH225495   3.693   0.322   6.399
  681TIP3    H125496   3.755   0.376   6.349
  681TIP3    H225497   3.611   0.370   6.396
  682TIP3   OH225498   1.924   0.203   6.728
  682TIP3    H125499   1.835   0.226   6.752
  682TIP3    H225500   1.957   0.280   6.680
  683TIP3   OH225501   3.419   1.788   6.952
  683TIP3    H125502   3.448   1.767   6.864
  683TIP3    H225503   3.499   1.786   7.005
  684TIP3   OH225504   1.942   0.155   7.586
  684TIP3    H125505   1.868   0.160   7.647
  684TIP3    H225506   1.915   0.208   7.511
  685TIP3   OH225507   2.131   1.487   7.983
  685TIP3    H125508   2.040   1.492   7.955
  685TIP3    H225509   2.131   1.426   8.057
  686TIP3   OH225510   2.440   1.615   7.646
  686TIP3    H125511   2.421   1.700   7.606
  686TIP3    H225512   2.528   1.593   7.615
  687TIP3   OH225513   2.824   1.695   7.903
  687TIP3    H125514   2.841   1.673   7.995
  687TIP3    H225515   2.900   1.746   7.876
  688TIP3   OH225516   3.052   1.843   7.853
  688TIP3    H125517   3.107   1.793   7.793
  688TIP3    H225518   3.109   1.862   7.928
  689TIP3   OH225519   3.576   0.129   7.727
  689TIP3    H125520   3.525   0.150   7.649
  689TIP3    H225521   3.567   0.034   7.736
  690TIP3   OH225522   2.167   1.934   7.609
  690TIP3    H125523   2.077   1.951   7.582
  690TIP3    H225524   2.169   1.958   7.702
  691TIP3   OH225525   2.420   1.866   7.534
  691TIP3    H125526   2.330   1.886   7.559
  691TIP3    H225527   2.429   1.898   7.445
  692TIP3   OH225528   2.859   1.815   7.448
  692TIP3    H125529   2.808   1.847   7.374
  692TIP3    H225530   2.874   1.893   7.502
  693TIP3   OH225531   3.084   1.711   7.578
  693TIP3    H125532   3.009   1.735   7.524
  693TIP3    H225533   3.156   1.763   7.544
  694TIP3   OH225534   3.328   1.849   7.544
  694TIP3    H125535   3.341   1.941   7.523
  694TIP3    H225536   3.367   1.802   7.470
  695TIP3   OH225537   2.107   1.732   7.295
  695TIP3    H125538   2.102   1.682   7.376
  695TIP3    H225539   2.187   1.701   7.253
  696TIP3   OH225540   2.331   1.616   7.193
  696TIP3    H125541   2.322   1.523   7.216
  696TIP3    H225542   2.420   1.638   7.219
  697TIP3   OH225543   2.593   1.640   7.296
  697TIP3    H125544   2.601   1.553   7.257
  697TIP3    H225545   2.619   1.628   7.387
  698TIP3   OH225546   2.954   0.244   7.168
  698TIP3    H125547   2.883   0.180   7.169
  698TIP3    H225548   3.021   0.205   7.112
  699TIP3   OH225549   3.388   0.144   7.189
  699TIP3    H125550   3.459   0.157   7.127
  699TIP3    H225551   3.308   0.151   7.136
  700TIP3   OH225552   3.622   0.173   6.998
  700TIP3    H125553   3.677   0.179   6.920
  700TIP3    H225554   3.654   0.242   7.055
  701TIP3   OH225555   2.132   0.146   6.906
  701TIP3    H125556   2.052   0.164   6.856
  701TIP3    H225557   2.138   0.051   6.908
  702TIP3   OH225558   2.623   0.108   6.911
  702TIP3    H125559   2.692   0.141   6.853
  702TIP3    H225560   2.658   0.121   6.999
  703TIP3   OH225561   3.162   0.127   7.021
  703TIP3    H125562   3.177   0.162   6.933
  703TIP3    H225563   3.144   0.034   7.007
  704TIP3   OH225564   3.283   0.186   6.642
  704TIP3    H125565   3.264   0.232   6.560
  704TIP3    H225566   3.272   0.094   6.621
  705TIP3   OH225567   2.058   1.696   6.630
  705TIP3    H125568   1.980   1.714   6.579
  705TIP3    H225569   2.127   1.749   6.589
  706TIP3   OH225570   2.293   0.263   6.385
  706TIP3    H125571   2.330   0.324   6.321
  706TIP3    H225572   2.340   0.282   6.466
  707TIP3   OH225573   2.724   0.278   6.567
  707TIP3    H125574   2.770   0.274   6.651
  707TIP3    H225575   2.787   0.316   6.507
  708TIP3   OH225576   2.934   1.790   6.437
  708TIP3    H125577   3.030   1.791   6.445
  708TIP3    H225578   2.919   1.757   6.348
  709TIP3   OH225579   3.558   1.729   6.727
  709TIP3    H125580   3.561   1.638   6.694
  709TIP3    H225581   3.543   1.781   6.648
  710TIP3   OH225582   2.150   0.198   7.851
  710TIP3    H125583   2.114   0.120   7.809
  710TIP3    H225584   2.232   0.168   7.892
  711TIP3   OH225585   2.367   0.119   8.016
  711TIP3    H125586   2.457   0.138   7.989
  711TIP3    H225587   2.359   0.024   8.011
  712TIP3   OH225588   2.256   1.749   6.377
  712TIP3    H125589   2.269   1.835   6.339
  712TIP3    H225590   2.189   1.708   6.322
  713TIP3   OH225591   3.307   0.091   8.154
  713TIP3    H125592   3.238   0.025   8.158
  713TIP3    H225593   3.372   0.055   8.094
  714TIP3   OH225594   3.499   1.612   7.934
  714TIP3    H125595   3.443   1.605   7.857
  714TIP3    H225596   3.495   1.705   7.959
  715TIP3   OH225597   4.942   1.026   6.938
  715TIP3    H125598   4.929   1.120   6.931
  715TIP3    H225599   4.896   0.990   6.862
  716TIP3   OH225600   4.831   0.921   7.313
  716TIP3    H125601   4.874   0.881   7.388
  716TIP3    H225602   4.796   0.847   7.263
  717TIP3   OH225603   4.039   0.886   7.463
  717TIP3    H125604   4.057   0.796   7.488
  717TIP3    H225605   4.097   0.939   7.518
  718TIP3   OH225606   5.217   1.229   7.133
  718TIP3    H125607   5.190   1.151   7.182
  718TIP3    H225608   5.242   1.292   7.201
  719TIP3   OH225609   4.196   1.352   7.260
  719TIP3    H125610   4.167   1.265   7.232
  719TIP3    H225611   4.290   1.343   7.273
  720TIP3   OH225612   3.830   0.686   6.814
  720TIP3    H125613   3.739   0.666   6.836
  720TIP3    H225614   3.833   0.683   6.718
  721TIP3   OH225615   3.970   0.931   7.049
  721TIP3    H125616   3.981   0.839   7.075
  721TIP3    H225617   3.970   0.929   6.954
  722TIP3   OH225618   4.940   1.726   7.110
  722TIP3    H125619   4.988   1.671   7.049
  722TIP3    H225620   4.920   1.669   7.183
  723TIP3   OH225621   4.685   1.162   7.317
  723TIP3    H125622   4.723   1.079   7.288
  723TIP3    H225623   4.752   1.202   7.372
  724TIP3   OH225624   5.596   0.316   7.404
  724TIP3    H125625   5.598   0.394   7.460
  724TIP3    H225626   5.655   0.337   7.332
  725TIP3   OH225627   5.025   0.599   7.342
  725TIP3    H125628   5.054   0.508   7.353
  725TIP3    H225629   5.008   0.608   7.248
  726TIP3   OH225630   4.339   0.409   7.037
  726TIP3    H125631   4.355   0.495   6.998
  726TIP3    H225632   4.297   0.358   6.967
  727TIP3   OH225633   5.104   0.466   6.902
  727TIP3    H125634   5.153   0.441   6.981
  727TIP3    H225635   5.172   0.495   6.841
  728TIP3   OH225636   4.002   0.666   7.132
  728TIP3    H125637   4.072   0.626   7.182
  728TIP3    H225638   4.013   0.632   7.043
  729TIP3   OH225639   4.497   0.805   7.101
  729TIP3    H125640   4.580   0.764   7.127
  729TIP3    H225641   4.455   0.740   7.044
  730TIP3   OH225642   5.610   0.492   7.624
  730TIP3    H125643   5.537   0.550   7.603
  730TIP3    H225644   5.623   0.502   7.719
  731TIP3   OH225645   4.214   0.343   7.479
  731TIP3    H125646   4.195   0.409   7.412
  731TIP3    H225647   4.142   0.351   7.541
  732TIP3   OH225648   4.898   1.291   6.814
  732TIP3    H125649   4.991   1.300   6.831
  732TIP3    H225650   4.860   1.375   6.840
  733TIP3   OH225651   4.460   1.097   7.462
  733TIP3    H125652   4.412   1.174   7.492
  733TIP3    H225653   4.536   1.133   7.415
  734TIP3   OH225654   5.244   0.450   7.139
  734TIP3    H125655   5.260   0.357   7.152
  734TIP3    H225656   5.309   0.494   7.194
  735TIP3   OH225657   4.196   0.504   7.253
  735TIP3    H125658   4.257   0.564   7.298
  735TIP3    H225659   4.246   0.471   7.178
  736TIP3   OH225660   4.323   1.316   7.561
  736TIP3    H125661   4.322   1.412   7.552
  736TIP3    H225662   4.236   1.295   7.595
  737TIP3   OH225663   3.890   1.246   6.621
  737TIP3    H125664   3.894   1.199   6.538
  737TIP3    H225665   3.970   1.299   6.622
  738TIP3   OH225666   5.259   1.431   7.331
  738TIP3    H125667   5.165   1.434   7.347
  738TIP3    H225668   5.282   1.520   7.303
  739TIP3   OH225669   5.338   0.243   7.501
  739TIP3    H125670   5.261   0.248   7.444
  739TIP3    H225671   5.412   0.256   7.443
  740TIP3   OH225672   4.597   0.100   7.172
  740TIP3    H125673   4.608   0.011   7.203
  740TIP3    H225674   4.531   0.138   7.230
  741TIP3   OH225675   5.087   1.573   6.939
  741TIP3    H125676   5.115   1.483   6.922
  741TIP3    H225677   5.168   1.624   6.941
  742TIP3   OH225678   5.166   1.316   6.880
  742TIP3    H125679   5.230   1.279   6.820
  742TIP3    H225680   5.190   1.281   6.966
  743TIP3   OH225681   5.374   1.223   7.694
  743TIP3    H125682   5.364   1.167   7.616
  743TIP3    H225683   5.385   1.311   7.659
  744TIP3   OH225684   4.836   0.953   6.689
  744TIP3    H125685   4.778   1.011   6.641
  744TIP3    H225686   4.911   0.939   6.631
  745TIP3   OH225687   5.548   0.911   7.530
  745TIP3    H125688   5.473   0.969   7.515
  745TIP3    H225689   5.604   0.924   7.454
  746TIP3   OH225690   5.181   0.958   6.815
  746TIP3    H125691   5.116   0.972   6.883
  746TIP3    H225692   5.248   0.904   6.857
  747TIP3   OH225693   5.157   0.773   7.708
  747TIP3    H125694   5.150   0.850   7.763
  747TIP3    H225695   5.094   0.788   7.637
  748TIP3   OH225696   4.355   0.994   6.934
  748TIP3    H125697   4.303   0.952   6.866
  748TIP3    H225698   4.404   0.923   6.974
  749TIP3   OH225699   4.473   1.295   7.190
  749TIP3    H125700   4.512   1.376   7.157
  749TIP3    H225701   4.547   1.247   7.228
  750TIP3   OH225702   4.338   0.917   7.293
  750TIP3    H125703   4.402   0.891   7.226
  750TIP3    H225704   4.387   0.978   7.350
  751TIP3   OH225705   4.997   1.447   7.403
  751TIP3    H125706   4.981   1.514   7.469
  751TIP3    H225707   4.955   1.368   7.439
  752TIP3   OH225708   4.466   1.337   7.798
  752TIP3    H125709   4.401   1.394   7.840
  752TIP3    H225710   4.427   1.315   7.714
  753TIP3   OH225711   5.085   0.921   6.565
  753TIP3    H125712   5.120   0.922   6.654
  753TIP3    H225713   5.121   1.000   6.524
  754TIP3   OH225714   4.139   0.955   7.729
  754TIP3    H125715   4.151   1.022   7.795
  754TIP3    H225716   4.046   0.933   7.733
  755TIP3   OH225717   4.768   1.530   6.856
  755TIP3    H125718   4.792   1.605   6.909
  755TIP3    H225719   4.738   1.568   6.773
  756TIP3   OH225720   4.272   1.514   7.881
  756TIP3    H125721   4.272   1.547   7.791
  756TIP3    H225722   4.179   1.499   7.901
  757TIP3   OH225723   5.402   0.068   6.573
  757TIP3    H125724   5.370  -0.003   6.517
  757TIP3    H225725   5.497   0.070   6.558
  758TIP3   OH225726   4.203   0.878   6.735
  758TIP3    H125727   4.140   0.899   6.666
  758TIP3    H225728   4.260   0.812   6.696
  759TIP3   OH225729   5.615   1.524   6.415
  759TIP3    H125730   5.642   1.573   6.493
  759TIP3    H225731   5.619   1.432   6.442
  760TIP3   OH225732   3.851   1.168   7.611
  760TIP3    H125733   3.803   1.177   7.529
  760TIP3    H225734   3.859   1.073   7.623
  761TIP3   OH225735   3.805   1.455   7.292
  761TIP3    H125736   3.892   1.459   7.333
  761TIP3    H225737   3.757   1.527   7.331
  762TIP3   OH225738   5.636   1.521   7.892
  762TIP3    H125739   5.623   1.427   7.879
  762TIP3    H225740   5.553   1.551   7.930
  763TIP3   OH225741   4.710   1.458   7.773
  763TIP3    H125742   4.708   1.543   7.817
  763TIP3    H225743   4.623   1.421   7.788
  764TIP3   OH225744   4.765   1.813   6.752
  764TIP3    H125745   4.758   1.825   6.657
  764TIP3    H225746   4.764   1.903   6.787
  765TIP3   OH225747   4.103   1.735   6.951
  765TIP3    H125748   4.165   1.694   7.012
  765TIP3    H225749   4.071   1.663   6.898
  766TIP3   OH225750   5.025   1.724   6.714
  766TIP3    H125751   4.932   1.744   6.724
  766TIP3    H225752   5.044   1.665   6.786
  767TIP3   OH225753   5.321   0.631   7.890
  767TIP3    H125754   5.268   0.678   7.826
  767TIP3    H225755   5.332   0.544   7.852
  768TIP3   OH225756   4.083   1.296   7.689
  768TIP3    H125757   4.099   1.258   7.776
  768TIP3    H225758   4.002   1.253   7.659
  769TIP3   OH225759   4.362   0.194   7.293
  769TIP3    H125760   4.314   0.217   7.213
  769TIP3    H225761   4.321   0.246   7.362
  770TIP3   OH225762   4.759   0.157   7.696
  770TIP3    H125763   4.793   0.068   7.689
  770TIP3    H225764   4.675   0.154   7.650
  771TIP3   OH225765   5.081   0.499   7.739
  771TIP3    H125766   5.023   0.491   7.815
  771TIP3    H225767   5.092   0.593   7.728
  772TIP3   OH225768   4.355   0.667   7.404
  772TIP3    H125769   4.328   0.685   7.494
  772TIP3    H225770   4.346   0.751   7.360
  773TIP3   OH225771   4.336   0.660   6.927
  773TIP3    H125772   4.241   0.652   6.917
  773TIP3    H225773   4.369   0.669   6.838
  774TIP3   OH225774   4.863   0.700   6.808
  774TIP3    H125775   4.841   0.785   6.770
  774TIP3    H225776   4.933   0.666   6.753
  775TIP3   OH225777   4.784   0.719   7.912
  775TIP3    H125778   4.739   0.643   7.950
  775TIP3    H225779   4.870   0.718   7.952
  776TIP3   OH225780   4.969   0.641   7.070
  776TIP3    H125781   4.933   0.696   7.001
  776TIP3    H225782   5.009   0.567   7.023
  777TIP3   OH225783   4.092   0.640   7.572
  777TIP3    H125784   4.167   0.666   7.626
  777TIP3    H225785   4.068   0.553   7.604
  778TIP3   OH225786   4.349   0.327   6.238
  778TIP3    H125787   4.345   0.422   6.225
  778TIP3    H225788   4.435   0.302   6.202
  779TIP3   OH225789   3.758   0.391   7.090
  779TIP3    H125790   3.844   0.376   7.130
  779TIP3    H225791   3.778   0.420   7.001
  780TIP3   OH225792   3.884   0.462   6.615
  780TIP3    H125793   3.934   0.445   6.534
  780TIP3    H225794   3.803   0.502   6.584
  781TIP3   OH225795   4.947   0.779   7.526
  781TIP3    H125796   4.982   0.719   7.461
  781TIP3    H225797   4.873   0.732   7.564
  782TIP3   OH225798   4.634   0.389   7.003
  782TIP3    H125799   4.549   0.385   7.047
  782TIP3    H225800   4.697   0.367   7.071
  783TIP3   OH225801   4.071   0.568   6.886
  783TIP3    H125802   3.994   0.605   6.844
  783TIP3    H225803   4.098   0.496   6.830
  784TIP3   OH225804   4.397   0.682   6.660
  784TIP3    H125805   4.479   0.635   6.671
  784TIP3    H225806   4.373   0.667   6.568
  785TIP3   OH225807   5.036   0.322   7.375
  785TIP3    H125808   4.966   0.337   7.439
  785TIP3    H225809   4.989   0.296   7.296
  786TIP3   OH225810   4.329   0.649   6.394
  786TIP3    H125811   4.249   0.612   6.357
  786TIP3    H225812   4.379   0.679   6.318
  787TIP3   OH225813   5.360   1.893   7.989
  787TIP3    H125814   5.382   1.924   7.901
  787TIP3    H225815   5.436   1.917   8.042
  788TIP3   OH225816   4.122   1.149   7.930
  788TIP3    H125817   4.189   1.146   7.999
  788TIP3    H225818   4.039   1.153   7.978
  789TIP3   OH225819   4.725   0.676   7.210
  789TIP3    H125820   4.802   0.649   7.160
  789TIP3    H225821   4.705   0.602   7.267
  790TIP3   OH225822   4.194   0.301   6.808
  790TIP3    H125823   4.110   0.270   6.776
  790TIP3    H225824   4.240   0.332   6.730
  791TIP3   OH225825   4.592   0.527   7.431
  791TIP3    H125826   4.518   0.585   7.414
  791TIP3    H225827   4.644   0.573   7.497
  792TIP3   OH225828   5.345   1.084   7.460
  792TIP3    H125829   5.402   1.142   7.410
  792TIP3    H225830   5.275   1.061   7.398
  793TIP3   OH225831   5.017   0.425   6.485
  793TIP3    H125832   4.985   0.443   6.396
  793TIP3    H225833   5.036   0.511   6.521
  794TIP3   OH225834   4.768   1.174   7.747
  794TIP3    H125835   4.799   1.142   7.831
  794TIP3    H225836   4.748   1.266   7.763
  795TIP3   OH225837   5.076   0.652   6.629
  795TIP3    H125838   5.163   0.628   6.662
  795TIP3    H225839   5.087   0.739   6.591
  796TIP3   OH225840   4.178   1.098   7.153
  796TIP3    H125841   4.105   1.052   7.113
  796TIP3    H225842   4.223   1.032   7.206
  797TIP3   OH225843   4.702   1.257   6.612
  797TIP3    H125844   4.693   1.350   6.589
  797TIP3    H225845   4.774   1.255   6.675
  798TIP3   OH225846   3.861   0.911   7.733
  798TIP3    H125847   3.858   0.845   7.803
  798TIP3    H225848   3.805   0.874   7.665
  799TIP3   OH225849   4.558   0.879   7.928
  799TIP3    H125850   4.516   0.873   7.842
  799TIP3    H225851   4.643   0.836   7.916
  800TIP3   OH225852   4.991   1.424   7.753
  800TIP3    H125853   4.898   1.438   7.732
  800TIP3    H225854   4.998   1.449   7.845
  801TIP3   OH225855   5.512   0.652   6.565
  801TIP3    H125856   5.496   0.611   6.480
  801TIP3    H225857   5.541   0.741   6.544
  802TIP3   OH225858   5.602   1.247   7.847
  802TIP3    H125859   5.512   1.246   7.813
  802TIP3    H225860   5.656   1.223   7.771
  803TIP3   OH225861   5.415   1.446   6.630
  803TIP3    H125862   5.430   1.377   6.695
  803TIP3    H225863   5.446   1.409   6.548
  804TIP3   OH225864   5.139   1.001   7.281
  804TIP3    H125865   5.045   0.991   7.266
  804TIP3    H225866   5.178   0.923   7.242
  805TIP3   OH225867   4.274   1.420   6.931
  805TIP3    H125868   4.330   1.498   6.927
  805TIP3    H225869   4.193   1.447   6.888
  806TIP3   OH225870   4.548   1.244   6.892
  806TIP3    H125871   4.597   1.320   6.861
  806TIP3    H225872   4.587   1.170   6.845
  807TIP3   OH225873   4.595   1.599   7.557
  807TIP3    H125874   4.651   1.670   7.524
  807TIP3    H225875   4.652   1.549   7.616
  808TIP3   OH225876   4.414   1.662   6.895
  808TIP3    H125877   4.412   1.683   6.801
  808TIP3    H225878   4.456   1.738   6.936
  809TIP3   OH225879   4.889   1.208   7.501
  809TIP3    H125880   4.849   1.190   7.586
  809TIP3    H225881   4.958   1.142   7.491
  810TIP3   OH225882   5.085   1.334   6.476
  810TIP3    H125883   5.147   1.277   6.522
  810TIP3    H225884   5.015   1.349   6.540
  811TIP3   OH225885   5.207   1.636   7.714
  811TIP3    H125886   5.124   1.591   7.698
  811TIP3    H225887   5.207   1.709   7.653
  812TIP3   OH225888   5.642   1.797   6.448
  812TIP3    H125889   5.632   1.730   6.381
  812TIP3    H225890   5.553   1.825   6.468
  813TIP3   OH225891   4.017   0.394   7.671
  813TIP3    H125892   3.946   0.437   7.718
  813TIP3    H225893   4.026   0.309   7.714
  814TIP3   OH225894   5.227   1.157   6.632
  814TIP3    H125895   5.206   1.094   6.701
  814TIP3    H225896   5.322   1.170   6.640
  815TIP3   OH225897   3.996   1.557   7.502
  815TIP3    H125898   4.046   1.478   7.521
  815TIP3    H225899   4.000   1.607   7.584
  816TIP3   OH225900   4.471   1.420   6.264
  816TIP3    H125901   4.439   1.439   6.175
  816TIP3    H225902   4.409   1.464   6.322
  817TIP3   OH225903   4.875   0.385   7.599
  817TIP3    H125904   4.959   0.401   7.641
  817TIP3    H225905   4.843   0.304   7.639
  818TIP3   OH225906   4.945   0.310   6.725
  818TIP3    H125907   4.964   0.346   6.638
  818TIP3    H225908   4.993   0.367   6.785
  819TIP3   OH225909   4.687   1.541   6.552
  819TIP3    H125910   4.627   1.614   6.539
  819TIP3    H225911   4.745   1.543   6.475
  820TIP3   OH225912   4.630   0.545   6.771
  820TIP3    H125913   4.711   0.596   6.775
  820TIP3    H225914   4.631   0.492   6.851
  821TIP3   OH225915   4.750   0.626   7.640
  821TIP3    H125916   4.757   0.646   7.734
  821TIP3    H225917   4.789   0.539   7.631
  822TIP3   OH225918   4.719   0.186   6.829
  822TIP3    H125919   4.700   0.260   6.886
  822TIP3    H225920   4.804   0.208   6.790
  823TIP3   OH225921   4.289   0.371   6.566
  823TIP3    H125922   4.278   0.408   6.478
  823TIP3    H225923   4.381   0.346   6.570
  824TIP3   OH225924   5.331   0.393   7.748
  824TIP3    H125925   5.238   0.415   7.737
  824TIP3    H225926   5.355   0.352   7.665
  825TIP3   OH225927   5.229   0.761   7.172
  825TIP3    H125928   5.155   0.705   7.149
  825TIP3    H225929   5.287   0.704   7.222
  826TIP3   OH225930   4.220   1.409   6.410
  826TIP3    H125931   4.177   1.477   6.462
  826TIP3    H225932   4.185   1.421   6.322
  827TIP3   OH225933   5.328   1.702   7.312
  827TIP3    H125934   5.317   1.768   7.244
  827TIP3    H225935   5.421   1.706   7.334
  828TIP3   OH225936   4.139   0.151   7.109
  828TIP3    H125937   4.079   0.218   7.140
  828TIP3    H225938   4.109   0.070   7.152
  829TIP3   OH225939   3.997   1.520   6.812
  829TIP3    H125940   3.921   1.463   6.823
  829TIP3    H225941   3.972   1.578   6.739
  830TIP3   OH225942   3.900   1.795   7.974
  830TIP3    H125943   3.967   1.772   8.038
  830TIP3    H225944   3.869   1.712   7.940
  831TIP3   OH225945   4.332   1.611   8.131
  831TIP3    H125946   4.415   1.569   8.155
  831TIP3    H225947   4.313   1.580   8.043
  832TIP3   OH225948   4.820   1.587   6.315
  832TIP3    H125949   4.748   1.628   6.267
  832TIP3    H225950   4.893   1.588   6.253
  833TIP3   OH225951   4.989   1.486   8.022
  833TIP3    H125952   4.981   1.402   8.068
  833TIP3    H225953   5.070   1.524   8.056
  834TIP3   OH225954   3.869   1.152   8.053
  834TIP3    H125955   3.857   1.058   8.047
  834TIP3    H225956   3.814   1.189   7.983
  835TIP3   OH225957   4.528   1.157   7.997
  835TIP3    H125958   4.515   1.205   7.915
  835TIP3    H225959   4.550   1.068   7.970
  836TIP3   OH225960   4.932   1.279   6.254
  836TIP3    H125961   4.901   1.365   6.223
  836TIP3    H225962   4.995   1.300   6.322
  837TIP3   OH225963   5.112   1.173   7.772
  837TIP3    H125964   5.202   1.193   7.746
  837TIP3    H225965   5.063   1.253   7.756
  838TIP3   OH225966   4.008   0.807   7.995
  838TIP3    H125967   4.092   0.760   7.987
  838TIP3    H225968   4.015   0.853   8.078
  839TIP3   OH225969   4.324   0.759   7.671
  839TIP3    H125970   4.265   0.830   7.698
  839TIP3    H225971   4.407   0.803   7.652
  840TIP3   OH225972   4.898   1.021   8.053
  840TIP3    H125973   4.975   0.982   8.012
  840TIP3    H225974   4.860   0.950   8.105
  841TIP3   OH225975   4.430   0.562   7.839
  841TIP3    H125976   4.421   0.477   7.798
  841TIP3    H225977   4.400   0.624   7.773
  842TIP3   OH225978   4.448   0.377   7.618
  842TIP3    H125979   4.508   0.416   7.554
  842TIP3    H225980   4.365   0.369   7.572
  843TIP3   OH225981   4.550   0.900   7.631
  843TIP3    H125982   4.645   0.895   7.618
  843TIP3    H225983   4.522   0.972   7.575
  844TIP3   OH225984   5.019   0.689   8.072
  844TIP3    H125985   5.034   0.595   8.056
  844TIP3    H225986   5.105   0.729   8.063
  845TIP3   OH225987   5.158   0.965   7.937
  845TIP3    H125988   5.131   1.040   7.885
  845TIP3    H225989   5.253   0.962   7.928
  846TIP3   OH225990   4.239   0.641   8.036
  846TIP3    H125991   4.183   0.564   8.033
  846TIP3    H225992   4.312   0.621   7.978
  847TIP3   OH225993   4.483   0.107   7.637
  847TIP3    H125994   4.479   0.201   7.651
  847TIP3    H225995   4.396   0.084   7.604
  848TIP3   OH225996   4.644   0.501   8.000
  848TIP3    H125997   4.596   0.470   8.077
  848TIP3    H225998   4.575   0.518   7.935
  849TIP3   OH225999   4.914   0.445   7.948
  849TIP3    H126000   4.820   0.444   7.967
  849TIP3    H226001   4.954   0.393   8.017
  850TIP3   OH226002   5.065   0.324   8.150
  850TIP3    H126003   5.042   0.232   8.138
  850TIP3    H226004   5.057   0.339   8.244
  851TIP3   OH226005   4.041   0.440   8.052
  851TIP3    H126006   4.110   0.394   8.003
  851TIP3    H226007   4.026   0.385   8.129
  852TIP3   OH226008   4.630   0.024   7.931
  852TIP3    H126009   4.579  -0.057   7.923
  852TIP3    H226010   4.620   0.067   7.846
  853TIP3   OH226011   4.509   0.115   8.176
  853TIP3    H126012   4.465   0.105   8.092
  853TIP3    H226013   4.475   0.197   8.212
  854TIP3   OH226014   3.745   1.849   6.894
  854TIP3    H126015   3.700   1.805   6.822
  854TIP3    H226016   3.773   1.779   6.952
  855TIP3   OH226017   3.809   1.667   7.088
  855TIP3    H126018   3.796   1.576   7.115
  855TIP3    H226019   3.897   1.689   7.118
  856TIP3   OH226020   5.588   1.755   7.373
  856TIP3    H126021   5.620   1.820   7.435
  856TIP3    H226022   5.654   1.754   7.303
  857TIP3   OH226023   5.554   1.688   7.677
  857TIP3    H126024   5.524   1.628   7.609
  857TIP3    H226025   5.587   1.631   7.747
  858TIP3   OH226026   5.430   1.270   8.189
  858TIP3    H126027   5.345   1.292   8.228
  858TIP3    H226028   5.479   1.352   8.193
  859TIP3   OH226029   5.474   1.189   6.743
  859TIP3    H126030   5.531   1.191   6.666
  859TIP3    H226031   5.505   1.113   6.793
  860TIP3   OH226032   5.560   0.959   6.870
  860TIP3    H126033   5.492   0.895   6.892
  860TIP3    H226034   5.623   0.953   6.942
  861TIP3   OH226035   5.577   1.223   7.382
  861TIP3    H126036   5.623   1.152   7.337
  861TIP3    H226037   5.606   1.303   7.337
  862TIP3   OH226038   5.389   1.470   7.578
  862TIP3    H126039   5.322   1.526   7.617
  862TIP3    H226040   5.358   1.454   7.489
  863TIP3   OH226041   5.599   0.906   6.476
  863TIP3    H126042   5.591   0.877   6.385
  863TIP3    H226043   5.588   1.001   6.472
  864TIP3   OH226044   5.359   0.779   6.926
  864TIP3    H126045   5.353   0.694   6.882
  864TIP3    H226046   5.326   0.763   7.014
  865TIP3   OH226047   3.850   0.984   7.296
  865TIP3    H126048   3.880   0.973   7.205
  865TIP3    H226049   3.925   0.956   7.349
  866TIP3   OH226050   5.431   0.978   7.902
  866TIP3    H126051   5.487   0.901   7.898
  866TIP3    H226052   5.465   1.037   7.835
  867TIP3   OH226053   5.561   0.743   7.936
  867TIP3    H126054   5.479   0.700   7.915
  867TIP3    H226055   5.628   0.675   7.927
  868TIP3   OH226056   5.409   0.406   6.337
  868TIP3    H126057   5.425   0.391   6.243
  868TIP3    H226058   5.339   0.344   6.359
  869TIP3   OH226059   5.320   0.561   6.742
  869TIP3    H126060   5.342   0.467   6.745
  869TIP3    H226061   5.387   0.599   6.685
  870TIP3   OH226062   5.407   0.597   7.309
  870TIP3    H126063   5.500   0.613   7.294
  870TIP3    H226064   5.396   0.606   7.403
  871TIP3   OH226065   5.407   0.678   7.577
  871TIP3    H126066   5.322   0.712   7.607
  871TIP3    H226067   5.458   0.757   7.558
  872TIP3   OH226068   3.831   0.477   7.866
  872TIP3    H126069   3.906   0.473   7.925
  872TIP3    H226070   3.775   0.404   7.894
  873TIP3   OH226071   5.686   0.080   8.052
  873TIP3    H126072   5.756   0.057   7.992
  873TIP3    H226073   5.639   0.151   8.008
  874TIP3   OH226074   5.381   0.295   6.754
  874TIP3    H126075   5.411   0.251   6.834
  874TIP3    H226076   5.366   0.223   6.692
  875TIP3   OH226077   3.979   0.334   7.243
  875TIP3    H126078   3.942   0.320   7.331
  875TIP3    H226079   4.043   0.404   7.255
  876TIP3   OH226080   3.803   0.643   7.324
  876TIP3    H126081   3.855   0.647   7.244
  876TIP3    H226082   3.851   0.698   7.387
  877TIP3   OH226083   5.539   0.285   7.944
  877TIP3    H126084   5.470   0.324   7.997
  877TIP3    H226085   5.495   0.259   7.863
  878TIP3   OH226086   3.771   0.264   6.775
  878TIP3    H126087   3.692   0.248   6.722
  878TIP3    H226088   3.821   0.327   6.724
  879TIP3   OH226089   5.303   1.731   6.936
  879TIP3    H126090   5.372   1.731   6.869
  879TIP3    H226091   5.334   1.794   7.001
  880TIP3   OH226092   3.809   0.161   7.564
  880TIP3    H126093   3.753   0.178   7.639
  880TIP3    H226094   3.771   0.213   7.493
  881TIP3   OH226095   4.017   1.482   7.976
  881TIP3    H126096   3.925   1.486   7.952
  881TIP3    H226097   4.018   1.436   8.061
  882TIP3   OH226098   4.326   1.591   7.618
  882TIP3    H126099   4.300   1.675   7.581
  882TIP3    H226100   4.421   1.588   7.607
  883TIP3   OH226101   4.713   1.713   7.891
  883TIP3    H126102   4.730   1.685   7.981
  883TIP3    H226103   4.792   1.762   7.867
  884TIP3   OH226104   4.950   1.853   7.850
  884TIP3    H126105   5.019   1.807   7.802
  884TIP3    H226106   4.992   1.878   7.933
  885TIP3   OH226107   5.469   0.124   7.715
  885TIP3    H126108   5.415   0.160   7.644
  885TIP3    H226109   5.447   0.031   7.717
  886TIP3   OH226110   4.041   1.896   7.600
  886TIP3    H126111   3.959   1.931   7.563
  886TIP3    H226112   4.044   1.933   7.688
  887TIP3   OH226113   4.297   1.843   7.514
  887TIP3    H126114   4.207   1.859   7.541
  887TIP3    H226115   4.308   1.894   7.434
  888TIP3   OH226116   4.744   1.802   7.442
  888TIP3    H126117   4.692   1.834   7.368
  888TIP3    H226118   4.767   1.882   7.491
  889TIP3   OH226119   4.970   1.684   7.550
  889TIP3    H126120   4.892   1.720   7.509
  889TIP3    H226121   5.040   1.745   7.527
  890TIP3   OH226122   5.207   1.835   7.520
  890TIP3    H126123   5.220   1.928   7.499
  890TIP3    H226124   5.247   1.788   7.447
  891TIP3   OH226125   4.003   1.734   7.288
  891TIP3    H126126   4.001   1.681   7.368
  891TIP3    H226127   4.080   1.701   7.240
  892TIP3   OH226128   4.215   1.611   7.172
  892TIP3    H126129   4.195   1.519   7.187
  892TIP3    H226130   4.304   1.623   7.205
  893TIP3   OH226131   4.448   1.615   7.314
  893TIP3    H126132   4.513   1.565   7.364
  893TIP3    H226133   4.441   1.698   7.360
  894TIP3   OH226134   4.835   0.265   7.162
  894TIP3    H126135   4.770   0.195   7.163
  894TIP3    H226136   4.906   0.231   7.107
  895TIP3   OH226137   5.308   0.185   7.157
  895TIP3    H126138   5.382   0.167   7.098
  895TIP3    H226139   5.233   0.146   7.113
  896TIP3   OH226140   5.527   0.173   6.964
  896TIP3    H126141   5.584   0.151   6.890
  896TIP3    H226142   5.566   0.254   6.999
  897TIP3   OH226143   4.000   0.098   6.790
  897TIP3    H126144   3.918   0.147   6.785
  897TIP3    H226145   3.995   0.036   6.716
  898TIP3   OH226146   3.911   0.171   6.501
  898TIP3    H126147   3.966   0.207   6.431
  898TIP3    H226148   3.823   0.202   6.479
  899TIP3   OH226149   4.446   0.117   6.926
  899TIP3    H126150   4.500   0.150   6.854
  899TIP3    H226151   4.500   0.131   7.004
  900TIP3   OH226152   5.043   0.140   7.025
  900TIP3    H126153   5.072   0.150   6.935
  900TIP3    H226154   5.037   0.045   7.038
  901TIP3   OH226155   5.129   0.099   6.767
  901TIP3    H126156   5.074   0.164   6.722
  901TIP3    H226157   5.156   0.038   6.698
  902TIP3   OH226158   3.911   1.684   6.608
  902TIP3    H126159   3.860   1.651   6.534
  902TIP3    H226160   3.925   1.776   6.588
  903TIP3   OH226161   4.544   0.308   6.642
  903TIP3    H126162   4.617   0.247   6.655
  903TIP3    H226163   4.581   0.394   6.662
  904TIP3   OH226164   4.839   1.882   6.491
  904TIP3    H126165   4.884   1.808   6.452
  904TIP3    H226166   4.756   1.887   6.444
  905TIP3   OH226167   5.483   1.705   6.725
  905TIP3    H126168   5.459   1.617   6.696
  905TIP3    H226169   5.456   1.762   6.653
  906TIP3   OH226170   4.023   0.184   7.854
  906TIP3    H126171   4.016   0.089   7.844
  906TIP3    H226172   4.113   0.199   7.885
  907TIP3   OH226173   4.147   0.045   8.115
  907TIP3    H126174   4.202   0.110   8.073
  907TIP3    H226175   4.176  -0.039   8.079
  908TIP3   OH226176   4.959   0.070   8.061
  908TIP3    H126177   5.002  -0.011   8.088
  908TIP3    H226178   4.986   0.083   7.970
  909TIP3   OH226179   5.380   1.622   7.934
  909TIP3    H126180   5.326   1.615   7.855
  909TIP3    H226181   5.376   1.714   7.958
  910TIP3   OH226182   6.840   1.000   6.925
  910TIP3    H126183   6.826   1.094   6.934
  910TIP3    H226184   6.790   0.975   6.847
  911TIP3   OH226185   6.733   0.944   7.297
  911TIP3    H126186   6.747   0.888   7.373
  911TIP3    H226187   6.689   0.888   7.233
  912TIP3   OH226188   5.927   0.872   7.432
  912TIP3    H126189   5.943   0.790   7.480
  912TIP3    H226190   6.014   0.908   7.416
  913TIP3   OH226191   7.127   1.209   7.142
  913TIP3    H126192   7.071   1.148   7.190
  913TIP3    H226193   7.138   1.283   7.201
  914TIP3   OH226194   6.093   1.342   7.274
  914TIP3    H126195   6.062   1.258   7.241
  914TIP3    H226196   6.186   1.345   7.249
  915TIP3   OH226197   5.734   0.729   6.834
  915TIP3    H126198   5.677   0.802   6.809
  915TIP3    H226199   5.714   0.661   6.769
  916TIP3   OH226200   5.765   0.933   7.059
  916TIP3    H126201   5.790   0.840   7.062
  916TIP3    H226202   5.841   0.976   7.019
  917TIP3   OH226203   6.788   1.701   7.132
  917TIP3    H126204   6.871   1.656   7.117
  917TIP3    H226205   6.725   1.653   7.078
  918TIP3   OH226206   6.561   1.202   7.303
  918TIP3    H126207   6.602   1.150   7.234
  918TIP3    H226208   6.628   1.212   7.370
  919TIP3   OH226209   7.460   0.349   7.322
  919TIP3    H126210   7.487   0.434   7.358
  919TIP3    H226211   7.473   0.357   7.228
  920TIP3   OH226212   6.899   0.599   7.342
  920TIP3    H126213   6.925   0.507   7.347
  920TIP3    H226214   6.878   0.613   7.250
  921TIP3   OH226215   6.233   0.403   7.052
  921TIP3    H126216   6.252   0.488   7.014
  921TIP3    H226217   6.186   0.356   6.984
  922TIP3   OH226218   6.981   0.471   6.932
  922TIP3    H126219   7.051   0.454   6.996
  922TIP3    H226220   7.027   0.499   6.853
  923TIP3   OH226221   5.868   0.676   7.121
  923TIP3    H126222   5.943   0.636   7.164
  923TIP3    H226223   5.875   0.648   7.029
  924TIP3   OH226224   6.350   0.803   7.107
  924TIP3    H126225   6.441   0.777   7.122
  924TIP3    H226226   6.319   0.743   7.039
  925TIP3   OH226227   7.404   0.486   7.604
  925TIP3    H126228   7.368   0.575   7.608
  925TIP3    H226229   7.469   0.484   7.674
  926TIP3   OH226230   6.084   0.344   7.466
  926TIP3    H126231   6.064   0.398   7.389
  926TIP3    H226232   6.008   0.352   7.522
  927TIP3   OH226233   6.749   1.262   6.874
  927TIP3    H126234   6.760   1.256   6.779
  927TIP3    H226235   6.741   1.356   6.891
  928TIP3   OH226236   6.349   1.102   7.447
  928TIP3    H126237   6.296   1.174   7.480
  928TIP3    H226238   6.417   1.145   7.394
  929TIP3   OH226239   7.144   0.433   7.152
  929TIP3    H126240   7.155   0.342   7.179
  929TIP3    H226241   7.184   0.484   7.222
  930TIP3   OH226242   6.066   0.512   7.243
  930TIP3    H126243   6.130   0.564   7.291
  930TIP3    H226244   6.115   0.472   7.172
  931TIP3   OH226245   6.184   1.303   7.538
  931TIP3    H126246   6.157   1.334   7.452
  931TIP3    H226247   6.104   1.306   7.591
  932TIP3   OH226248   5.850   1.272   6.701
  932TIP3    H126249   5.776   1.262   6.641
  932TIP3    H226250   5.833   1.353   6.748
  933TIP3   OH226251   7.142   1.418   7.329
  933TIP3    H126252   7.049   1.423   7.349
  933TIP3    H226253   7.164   1.504   7.292
  934TIP3   OH226254   7.177   0.190   7.485
  934TIP3    H126255   7.093   0.231   7.465
  934TIP3    H226256   7.217   0.173   7.400
  935TIP3   OH226257   6.513   0.105   7.269
  935TIP3    H126258   6.501   0.028   7.213
  935TIP3    H226259   6.429   0.150   7.266
  936TIP3   OH226260   7.016   1.587   7.039
  936TIP3    H126261   7.026   1.505   6.991
  936TIP3    H226262   7.081   1.645   7.000
  937TIP3   OH226263   7.076   1.352   6.908
  937TIP3    H126264   7.104   1.306   6.829
  937TIP3    H226265   7.097   1.293   6.980
  938TIP3   OH226266   7.234   1.195   7.708
  938TIP3    H126267   7.233   1.147   7.625
  938TIP3    H226268   7.229   1.287   7.682
  939TIP3   OH226269   6.730   0.947   6.675
  939TIP3    H126270   6.656   1.000   6.647
  939TIP3    H226271   6.792   0.952   6.602
  940TIP3   OH226272   6.730   0.873   6.344
  940TIP3    H126273   6.812   0.877   6.393
  940TIP3    H226274   6.710   0.780   6.337
  941TIP3   OH226275   7.417   0.896   7.516
  941TIP3    H126276   7.347   0.958   7.495
  941TIP3    H226277   7.478   0.903   7.443
  942TIP3   OH226278   7.055   0.915   6.756
  942TIP3    H126279   6.990   0.949   6.817
  942TIP3    H226280   7.120   0.872   6.811
  943TIP3   OH226281   6.971   0.831   7.703
  943TIP3    H126282   7.061   0.820   7.673
  943TIP3    H226283   6.918   0.820   7.624
  944TIP3   OH226284   6.201   1.004   6.967
  944TIP3    H126285   6.167   0.972   6.883
  944TIP3    H226286   6.260   0.935   6.997
  945TIP3   OH226287   6.358   1.374   7.212
  945TIP3    H126288   6.354   1.380   7.117
  945TIP3    H226289   6.435   1.320   7.230
  946TIP3   OH226290   6.207   0.904   7.321
  946TIP3    H126291   6.256   0.877   7.243
  946TIP3    H226292   6.260   0.973   7.360
  947TIP3   OH226293   6.889   1.434   7.421
  947TIP3    H126294   6.864   1.514   7.468
  947TIP3    H226295   6.827   1.368   7.450
  948TIP3   OH226296   6.329   1.324   7.777
  948TIP3    H126297   6.274   1.388   7.823
  948TIP3    H226298   6.288   1.316   7.690
  949TIP3   OH226299   6.960   0.909   6.487
  949TIP3    H126300   7.009   0.906   6.570
  949TIP3    H226301   7.027   0.921   6.420
  950TIP3   OH226302   6.033   0.965   7.716
  950TIP3    H126303   6.036   1.061   7.720
  950TIP3    H226304   5.939   0.944   7.712
  951TIP3   OH226305   6.713   1.544   6.860
  951TIP3    H126306   6.792   1.595   6.843
  951TIP3    H226307   6.672   1.535   6.774
  952TIP3   OH226308   6.168   1.524   7.891
  952TIP3    H126309   6.170   1.561   7.802
  952TIP3    H226310   6.074   1.517   7.912
  953TIP3   OH226311   7.240   0.127   6.512
  953TIP3    H126312   7.240   0.051   6.454
  953TIP3    H226313   7.239   0.203   6.453
  954TIP3   OH226314   6.080   0.931   6.728
  954TIP3    H126315   6.080   1.011   6.676
  954TIP3    H226316   5.993   0.893   6.715
  955TIP3   OH226317   7.451   1.481   6.347
  955TIP3    H126318   7.452   1.552   6.283
  955TIP3    H226319   7.448   1.401   6.294
  956TIP3   OH226320   5.729   1.167   7.618
  956TIP3    H126321   5.679   1.180   7.538
  956TIP3    H226322   5.736   1.072   7.626
  957TIP3   OH226323   5.736   1.443   7.281
  957TIP3    H126324   5.816   1.402   7.248
  957TIP3    H226325   5.762   1.486   7.362
  958TIP3   OH226326   7.510   1.527   7.873
  958TIP3    H126327   7.513   1.432   7.862
  958TIP3    H226328   7.422   1.545   7.907
  959TIP3   OH226329   6.586   1.422   7.741
  959TIP3    H126330   6.582   1.510   7.777
  959TIP3    H226331   6.498   1.387   7.751
  960TIP3   OH226332   6.617   1.833   6.669
  960TIP3    H126333   6.594   1.842   6.577
  960TIP3    H226334   6.631   1.923   6.699
  961TIP3   OH226335   6.006   1.700   6.943
  961TIP3    H126336   6.046   1.662   7.021
  961TIP3    H226337   5.955   1.629   6.904
  962TIP3   OH226338   6.945   1.674   6.461
  962TIP3    H126339   6.905   1.730   6.395
  962TIP3    H226340   6.970   1.595   6.414
  963TIP3   OH226341   6.877   1.741   6.722
  963TIP3    H126342   6.785   1.758   6.703
  963TIP3    H226343   6.911   1.701   6.642
  964TIP3   OH226344   7.215   0.648   7.897
  964TIP3    H126345   7.199   0.683   7.810
  964TIP3    H226346   7.210   0.553   7.885
  965TIP3   OH226347   5.957   1.302   7.688
  965TIP3    H126348   5.964   1.283   7.782
  965TIP3    H226349   5.875   1.260   7.661
  966TIP3   OH226350   6.254   0.203   7.288
  966TIP3    H126351   6.235   0.244   7.204
  966TIP3    H226352   6.191   0.242   7.349
  967TIP3   OH226353   6.659   0.168   7.701
  967TIP3    H126354   6.686   0.076   7.702
  967TIP3    H226355   6.572   0.167   7.662
  968TIP3   OH226356   6.976   0.538   7.720
  968TIP3    H126357   6.920   0.505   7.791
  968TIP3    H226358   6.965   0.633   7.724
  969TIP3   OH226359   6.224   0.651   7.422
  969TIP3    H126360   6.151   0.649   7.485
  969TIP3    H226361   6.223   0.741   7.388
  970TIP3   OH226362   6.229   0.646   6.916
  970TIP3    H126363   6.135   0.635   6.904
  970TIP3    H226364   6.264   0.648   6.827
  971TIP3   OH226365   6.773   0.701   6.797
  971TIP3    H126366   6.757   0.784   6.752
  971TIP3    H226367   6.842   0.660   6.745
  972TIP3   OH226368   6.743   0.744   7.916
  972TIP3    H126369   6.666   0.692   7.939
  972TIP3    H226370   6.814   0.706   7.968
  973TIP3   OH226371   6.859   0.673   7.072
  973TIP3    H126372   6.837   0.738   7.005
  973TIP3    H226373   6.886   0.596   7.022
  974TIP3   OH226374   5.999   0.651   7.581
  974TIP3    H126375   6.014   0.686   7.669
  974TIP3    H226376   5.954   0.567   7.597
  975TIP3   OH226377   6.309   0.410   6.349
  975TIP3    H126378   6.390   0.365   6.328
  975TIP3    H226379   6.312   0.491   6.297
  976TIP3   OH226380   5.682   0.393   7.008
  976TIP3    H126381   5.734   0.402   7.087
  976TIP3    H226382   5.745   0.392   6.936
  977TIP3   OH226383   5.758   0.539   6.630
  977TIP3    H126384   5.803   0.552   6.546
  977TIP3    H226385   5.666   0.552   6.611
  978TIP3   OH226386   6.784   0.777   7.511
  978TIP3    H126387   6.827   0.716   7.451
  978TIP3    H226388   6.723   0.722   7.562
  979TIP3   OH226389   6.520   0.414   7.029
  979TIP3    H126390   6.430   0.391   7.053
  979TIP3    H226391   6.574   0.380   7.100
  980TIP3   OH226392   5.965   0.562   6.886
  980TIP3    H126393   5.898   0.588   6.822
  980TIP3    H226394   5.999   0.479   6.852
  981TIP3   OH226395   6.306   0.625   6.639
  981TIP3    H126396   6.393   0.615   6.676
  981TIP3    H226397   6.286   0.539   6.601
  982TIP3   OH226398   6.945   0.300   7.361
  982TIP3    H126399   6.851   0.312   7.376
  982TIP3    H226400   6.950   0.266   7.272
  983TIP3   OH226401   7.230   1.870   8.012
  983TIP3    H126402   7.250   1.905   7.925
  983TIP3    H226403   7.305   1.896   8.066
  984TIP3   OH226404   5.978   1.214   7.954
  984TIP3    H126405   6.052   1.186   8.006
  984TIP3    H226406   5.901   1.178   7.999
  985TIP3   OH226407   6.602   0.700   7.192
  985TIP3    H126408   6.678   0.682   7.136
  985TIP3    H226409   6.579   0.615   7.230
  986TIP3   OH226410   6.094   0.324   6.831
  986TIP3    H126411   6.035   0.248   6.834
  986TIP3    H226412   6.133   0.320   6.743
  987TIP3   OH226413   6.465   0.522   7.443
  987TIP3    H126414   6.389   0.577   7.426
  987TIP3    H226415   6.518   0.572   7.504
  988TIP3   OH226416   6.508   1.116   6.617
  988TIP3    H126417   6.474   1.193   6.573
  988TIP3    H226418   6.481   1.126   6.708
  989TIP3   OH226419   7.218   1.076   7.463
  989TIP3    H126420   7.272   1.139   7.416
  989TIP3    H226421   7.144   1.059   7.405
  990TIP3   OH226422   6.668   1.129   7.816
  990TIP3    H126423   6.602   1.139   7.884
  990TIP3    H226424   6.670   1.213   7.771
  991TIP3   OH226425   6.968   0.567   6.654
  991TIP3    H126426   7.055   0.605   6.643
  991TIP3    H226427   6.960   0.505   6.582
  992TIP3   OH226428   6.049   1.089   7.178
  992TIP3    H126429   6.093   1.075   7.094
  992TIP3    H226430   6.078   1.015   7.232
  993TIP3   OH226431   5.760   0.906   7.732
  993TIP3    H126432   5.764   0.854   7.813
  993TIP3    H226433   5.689   0.867   7.682
  994TIP3   OH226434   6.436   0.878   7.900
  994TIP3    H126435   6.357   0.846   7.856
  994TIP3    H226436   6.507   0.860   7.838
  995TIP3   OH226437   6.860   1.390   7.780
  995TIP3    H126438   6.774   1.414   7.745
  995TIP3    H226439   6.869   1.445   7.858
  996TIP3   OH226440   7.406   0.594   6.567
  996TIP3    H126441   7.349   0.539   6.513
  996TIP3    H226442   7.404   0.679   6.523
  997TIP3   OH226443   7.479   1.251   7.836
  997TIP3    H126444   7.386   1.250   7.814
  997TIP3    H226445   7.523   1.219   7.758
  998TIP3   OH226446   7.350   1.432   6.594
  998TIP3    H126447   7.268   1.386   6.575
  998TIP3    H226448   7.386   1.453   6.508
  999TIP3   OH226449   7.007   1.002   7.296
  999TIP3    H126450   6.915   0.990   7.275
  999TIP3    H226451   7.052   0.931   7.250
 1000TIP3   OH226452   6.293   1.419   6.947
 1000TIP3    H126453   6.316   1.505   6.913
 1000TIP3    H226454   6.219   1.391   6.893
 1001TIP3   OH226455   5.893   0.919   6.470
 1001TIP3    H126456   5.926   1.008   6.486
 1001TIP3    H226457   5.798   0.929   6.469
 1002TIP3   OH226458   6.398   1.172   6.861
 1002TIP3    H126459   6.388   1.262   6.891
 1002TIP3    H226460   6.327   1.124   6.903
 1003TIP3   OH226461   6.471   1.605   7.541
 1003TIP3    H126462   6.529   1.678   7.519
 1003TIP3    H226463   6.530   1.537   7.574
 1004TIP3   OH226464   6.270   1.674   6.838
 1004TIP3    H126465   6.179   1.701   6.851
 1004TIP3    H226466   6.322   1.752   6.860
 1005TIP3   OH226467   6.772   1.187   7.488
 1005TIP3    H126468   6.819   1.168   7.570
 1005TIP3    H226469   6.817   1.134   7.422
 1006TIP3   OH226470   7.114   1.313   6.470
 1006TIP3    H126471   7.025   1.346   6.464
 1006TIP3    H226472   7.152   1.332   6.384
 1007TIP3   OH226473   7.058   1.671   7.753
 1007TIP3    H126474   7.022   1.595   7.708
 1007TIP3    H226475   7.087   1.729   7.683
 1008TIP3   OH226476   5.878   0.410   7.639
 1008TIP3    H126477   5.786   0.431   7.620
 1008TIP3    H226478   5.873   0.332   7.694
 1009TIP3   OH226479   7.150   1.177   6.707
 1009TIP3    H126480   7.125   1.085   6.700
 1009TIP3    H226481   7.143   1.211   6.617
 1010TIP3   OH226482   5.862   1.560   7.507
 1010TIP3    H126483   5.918   1.493   7.547
 1010TIP3    H226484   5.837   1.616   7.580
 1011TIP3   OH226485   6.262   1.345   6.504
 1011TIP3    H126486   6.317   1.420   6.526
 1011TIP3    H226487   6.205   1.376   6.434
 1012TIP3   OH226488   6.053   1.152   6.565
 1012TIP3    H126489   5.986   1.202   6.611
 1012TIP3    H226490   6.120   1.216   6.543
 1013TIP3   OH226491   6.767   0.393   7.586
 1013TIP3    H126492   6.858   0.406   7.610
 1013TIP3    H226493   6.744   0.309   7.626
 1014TIP3   OH226494   6.819   0.322   6.699
 1014TIP3    H126495   6.848   0.326   6.608
 1014TIP3    H226496   6.852   0.403   6.738
 1015TIP3   OH226497   6.642   1.516   6.591
 1015TIP3    H126498   6.559   1.555   6.563
 1015TIP3    H226499   6.694   1.507   6.511
 1016TIP3   OH226500   6.531   0.564   6.791
 1016TIP3    H126501   6.615   0.610   6.791
 1016TIP3    H226502   6.532   0.514   6.873
 1017TIP3   OH226503   6.628   0.610   7.660
 1017TIP3    H126504   6.643   0.611   7.754
 1017TIP3    H226505   6.670   0.530   7.629
 1018TIP3   OH226506   6.654   0.204   6.898
 1018TIP3    H126507   6.620   0.290   6.924
 1018TIP3    H226508   6.707   0.222   6.820
 1019TIP3   OH226509   6.387   1.612   6.531
 1019TIP3    H126510   6.393   1.681   6.464
 1019TIP3    H226511   6.355   1.658   6.609
 1020TIP3   OH226512   6.239   0.335   6.599
 1020TIP3    H126513   6.233   0.352   6.505
 1020TIP3    H226514   6.328   0.304   6.613
 1021TIP3   OH226515   7.203   0.398   7.782
 1021TIP3    H126516   7.121   0.430   7.745
 1021TIP3    H226517   7.262   0.391   7.708
 1022TIP3   OH226518   7.104   0.760   7.187
 1022TIP3    H126519   7.021   0.730   7.152
 1022TIP3    H226520   7.128   0.694   7.252
 1023TIP3   OH226521   5.781   0.656   6.367
 1023TIP3    H126522   5.825   0.736   6.396
 1023TIP3    H226523   5.710   0.686   6.311
 1024TIP3   OH226524   7.208   1.699   7.328
 1024TIP3    H126525   7.191   1.751   7.249
 1024TIP3    H226526   7.301   1.715   7.347
 1025TIP3   OH226527   5.971   0.161   7.181
 1025TIP3    H126528   5.957   0.162   7.086
 1025TIP3    H226529   5.963   0.069   7.205
 1026TIP3   OH226530   5.814   1.526   6.831
 1026TIP3    H126531   5.737   1.555   6.880
 1026TIP3    H226532   5.817   1.585   6.755
 1027TIP3   OH226533   5.790   1.794   7.968
 1027TIP3    H126534   5.850   1.770   8.039
 1027TIP3    H226535   5.756   1.710   7.935
 1028TIP3   OH226536   6.321   1.625   8.093
 1028TIP3    H126537   6.361   1.541   8.117
 1028TIP3    H226538   6.260   1.604   8.023
 1029TIP3   OH226539   6.858   1.509   8.034
 1029TIP3    H126540   6.851   1.420   8.070
 1029TIP3    H226541   6.943   1.541   8.066
 1030TIP3   OH226542   5.736   1.156   8.074
 1030TIP3    H126543   5.700   1.069   8.091
 1030TIP3    H226544   5.682   1.191   8.003
 1031TIP3   OH226545   6.420   1.150   7.971
 1031TIP3    H126546   6.387   1.198   7.895
 1031TIP3    H226547   6.420   1.058   7.944
 1032TIP3   OH226548   6.972   1.144   7.783
 1032TIP3    H126549   7.060   1.159   7.749
 1032TIP3    H226550   6.931   1.231   7.784
 1033TIP3   OH226551   5.887   0.795   7.985
 1033TIP3    H126552   5.981   0.790   7.967
 1033TIP3    H226553   5.881   0.837   8.070
 1034TIP3   OH226554   6.242   0.790   7.720
 1034TIP3    H126555   6.171   0.854   7.712
 1034TIP3    H226556   6.309   0.821   7.659
 1035TIP3   OH226557   6.789   1.000   8.076
 1035TIP3    H126558   6.883   0.985   8.092
 1035TIP3    H226559   6.745   0.936   8.131
 1036TIP3   OH226560   6.305   0.544   7.822
 1036TIP3    H126561   6.312   0.477   7.755
 1036TIP3    H226562   6.286   0.625   7.774
 1037TIP3   OH226563   6.316   0.366   7.610
 1037TIP3    H126564   6.377   0.408   7.550
 1037TIP3    H226565   6.233   0.363   7.562
 1038TIP3   OH226566   6.458   0.895   7.588
 1038TIP3    H126567   6.539   0.876   7.541
 1038TIP3    H226568   6.422   0.972   7.543
 1039TIP3   OH226569   6.922   0.647   8.109
 1039TIP3    H126570   6.919   0.552   8.121
 1039TIP3    H226571   7.015   0.668   8.116
 1040TIP3   OH226572   7.052   0.985   7.989
 1040TIP3    H126573   7.036   1.061   7.933
 1040TIP3    H226574   7.136   0.950   7.959
 1041TIP3   OH226575   6.151   0.578   8.046
 1041TIP3    H126576   6.068   0.535   8.027
 1041TIP3    H226577   6.199   0.575   7.963
 1042TIP3   OH226578   6.386   0.104   7.601
 1042TIP3    H126579   6.360   0.194   7.618
 1042TIP3    H226580   6.376   0.093   7.507
 1043TIP3   OH226581   6.535   0.572   7.973
 1043TIP3    H126582   6.518   0.519   8.051
 1043TIP3    H226583   6.457   0.560   7.919
 1044TIP3   OH226584   6.826   0.418   7.912
 1044TIP3    H126585   6.756   0.354   7.902
 1044TIP3    H226586   6.887   0.378   7.974
 1045TIP3   OH226587   6.994   0.323   8.111
 1045TIP3    H126588   6.975   0.230   8.099
 1045TIP3    H226589   6.961   0.345   8.198
 1046TIP3   OH226590   5.929   0.415   8.007
 1046TIP3    H126591   5.933   0.346   7.942
 1046TIP3    H226592   5.930   0.369   8.091
 1047TIP3   OH226593   6.346   0.056   7.890
 1047TIP3    H126594   6.356  -0.039   7.895
 1047TIP3    H226595   6.360   0.077   7.798
 1048TIP3   OH226596   6.381   0.125   8.153
 1048TIP3    H126597   6.388   0.105   8.060
 1048TIP3    H226598   6.375   0.221   8.156
 1049TIP3   OH226599   5.638   1.852   6.902
 1049TIP3    H126600   5.599   1.804   6.829
 1049TIP3    H226601   5.655   1.786   6.969
 1050TIP3   OH226602   5.699   1.664   7.094
 1050TIP3    H126603   5.674   1.582   7.137
 1050TIP3    H226604   5.777   1.694   7.141
 1051TIP3   OH226605   7.461   1.773   7.429
 1051TIP3    H126606   7.493   1.862   7.446
 1051TIP3    H226607   7.499   1.749   7.345
 1052TIP3   OH226608   7.379   1.677   7.668
 1052TIP3    H126609   7.417   1.698   7.582
 1052TIP3    H226610   7.447   1.627   7.713
 1053TIP3   OH226611   7.294   1.274   8.158
 1053TIP3    H126612   7.218   1.293   8.213
 1053TIP3    H226613   7.350   1.351   8.166
 1054TIP3   OH226614   7.511   1.056   6.634
 1054TIP3    H126615   7.519   1.148   6.659
 1054TIP3    H226616   7.480   1.012   6.713
 1055TIP3   OH226617   7.454   0.900   6.863
 1055TIP3    H126618   7.363   0.876   6.880
 1055TIP3    H226619   7.488   0.929   6.947
 1056TIP3   OH226620   7.436   1.217   7.372
 1056TIP3    H126621   7.477   1.162   7.305
 1056TIP3    H226622   7.465   1.306   7.350
 1057TIP3   OH226623   7.225   1.442   7.596
 1057TIP3    H126624   7.269   1.528   7.603
 1057TIP3    H226625   7.205   1.433   7.503
 1058TIP3   OH226626   7.397   0.852   6.466
 1058TIP3    H126627   7.336   0.888   6.401
 1058TIP3    H226628   7.431   0.928   6.512
 1059TIP3   OH226629   7.222   0.773   6.931
 1059TIP3    H126630   7.222   0.685   6.894
 1059TIP3    H226631   7.186   0.763   7.019
 1060TIP3   OH226632   5.711   0.993   7.319
 1060TIP3    H126633   5.717   0.977   7.225
 1060TIP3    H226634   5.794   0.961   7.354
 1061TIP3   OH226635   7.308   0.972   7.894
 1061TIP3    H126636   7.381   0.914   7.872
 1061TIP3    H226637   7.310   1.039   7.825
 1062TIP3   OH226638   7.467   0.740   7.915
 1062TIP3    H126639   7.374   0.717   7.917
 1062TIP3    H226640   7.512   0.656   7.906
 1063TIP3   OH226641   7.239   0.535   6.780
 1063TIP3    H126642   7.246   0.441   6.768
 1063TIP3    H226643   7.291   0.572   6.709
 1064TIP3   OH226644   7.254   0.575   7.368
 1064TIP3    H126645   7.337   0.612   7.338
 1064TIP3    H226646   7.279   0.495   7.415
 1065TIP3   OH226647   7.225   0.724   7.614
 1065TIP3    H126648   7.198   0.676   7.536
 1065TIP3    H226649   7.291   0.786   7.582
 1066TIP3   OH226650   5.692   0.507   7.895
 1066TIP3    H126651   5.781   0.494   7.927
 1066TIP3    H226652   5.646   0.427   7.918
 1067TIP3   OH226653   7.559   0.079   8.102
 1067TIP3    H126654   7.643   0.063   8.058
 1067TIP3    H226655   7.513   0.139   8.044
 1068TIP3   OH226656   7.278   0.255   6.747
 1068TIP3    H126657   7.189   0.230   6.771
 1068TIP3    H226658   7.287   0.227   6.656
 1069TIP3   OH226659   5.821   0.376   7.250
 1069TIP3    H126660   5.866   0.293   7.233
 1069TIP3    H226661   5.891   0.441   7.250
 1070TIP3   OH226662   5.674   0.670   7.320
 1070TIP3    H126663   5.725   0.657   7.240
 1070TIP3    H226664   5.724   0.734   7.370
 1071TIP3   OH226665   7.425   0.260   7.945
 1071TIP3    H126666   7.359   0.300   8.001
 1071TIP3    H226667   7.376   0.226   7.870
 1072TIP3   OH226668   7.600   0.248   6.458
 1072TIP3    H126669   7.551   0.181   6.411
 1072TIP3    H226670   7.635   0.306   6.390
 1073TIP3   OH226671   5.708   0.209   6.750
 1073TIP3    H126672   5.644   0.272   6.716
 1073TIP3    H226673   5.742   0.165   6.671
 1074TIP3   OH226674   7.210   1.760   6.943
 1074TIP3    H126675   7.203   1.745   6.848
 1074TIP3    H226676   7.303   1.750   6.962
 1075TIP3   OH226677   5.715   0.157   7.598
 1075TIP3    H126678   5.635   0.159   7.651
 1075TIP3    H226679   5.693   0.206   7.519
 1076TIP3   OH226680   5.904   1.489   7.960
 1076TIP3    H126681   5.810   1.494   7.942
 1076TIP3    H226682   5.921   1.396   7.976
 1077TIP3   OH226683   6.211   1.615   7.640
 1077TIP3    H126684   6.189   1.700   7.601
 1077TIP3    H226685   6.298   1.595   7.606
 1078TIP3   OH226686   6.607   1.675   7.852
 1078TIP3    H126687   6.623   1.648   7.942
 1078TIP3    H226688   6.685   1.725   7.827
 1079TIP3   OH226689   6.835   1.831   7.841
 1079TIP3    H126690   6.903   1.779   7.799
 1079TIP3    H226691   6.873   1.856   7.926
 1080TIP3   OH226692   7.320   0.125   7.718
 1080TIP3    H126693   7.258   0.151   7.650
 1080TIP3    H226694   7.308   0.031   7.728
 1081TIP3   OH226695   5.921   1.925   7.598
 1081TIP3    H126696   5.832   1.938   7.564
 1081TIP3    H226697   5.915   1.950   7.691
 1082TIP3   OH226698   6.180   1.864   7.532
 1082TIP3    H126699   6.088   1.885   7.549
 1082TIP3    H226700   6.195   1.896   7.443
 1083TIP3   OH226701   6.630   1.813   7.448
 1083TIP3    H126702   6.610   1.832   7.356
 1083TIP3    H226703   6.650   1.897   7.487
 1084TIP3   OH226704   6.847   1.677   7.548
 1084TIP3    H126705   6.773   1.719   7.505
 1084TIP3    H226706   6.922   1.733   7.529
 1085TIP3   OH226707   7.097   1.840   7.535
 1085TIP3    H126708   7.111   1.930   7.507
 1085TIP3    H226709   7.132   1.787   7.463
 1086TIP3   OH226710   5.888   1.736   7.287
 1086TIP3    H126711   5.876   1.689   7.369
 1086TIP3    H226712   5.967   1.698   7.248
 1087TIP3   OH226713   6.102   1.607   7.185
 1087TIP3    H126714   6.096   1.514   7.209
 1087TIP3    H226715   6.192   1.632   7.209
 1088TIP3   OH226716   6.361   1.642   7.287
 1088TIP3    H126717   6.374   1.554   7.252
 1088TIP3    H226718   6.389   1.636   7.378
 1089TIP3   OH226719   6.706   0.288   7.195
 1089TIP3    H126720   6.648   0.218   7.225
 1089TIP3    H226721   6.762   0.247   7.131
 1090TIP3   OH226722   7.173   0.152   7.200
 1090TIP3    H126723   7.240   0.158   7.132
 1090TIP3    H226724   7.090   0.145   7.152
 1091TIP3   OH226725   7.353   0.190   7.005
 1091TIP3    H126726   7.329   0.196   6.912
 1091TIP3    H226727   7.407   0.268   7.020
 1092TIP3   OH226728   5.911   0.134   6.915
 1092TIP3    H126729   5.839   0.158   6.857
 1092TIP3    H226730   5.916   0.038   6.909
 1093TIP3   OH226731   6.405   0.098   6.938
 1093TIP3    H126732   6.354   0.142   6.869
 1093TIP3    H226733   6.494   0.129   6.925
 1094TIP3   OH226734   6.934   0.163   7.063
 1094TIP3    H126735   6.942   0.213   6.981
 1094TIP3    H226736   6.931   0.071   7.034
 1095TIP3   OH226737   7.027   0.149   6.782
 1095TIP3    H126738   6.967   0.201   6.729
 1095TIP3    H226739   7.034   0.065   6.736
 1096TIP3   OH226740   5.834   1.701   6.621
 1096TIP3    H126741   5.775   1.745   6.560
 1096TIP3    H226742   5.917   1.694   6.573
 1097TIP3   OH226743   6.505   0.279   6.599
 1097TIP3    H126744   6.524   0.258   6.508
 1097TIP3    H226745   6.569   0.346   6.622
 1098TIP3   OH226746   7.317   1.695   6.693
 1098TIP3    H126747   7.310   1.601   6.674
 1098TIP3    H226748   7.383   1.726   6.632
 1099TIP3   OH226749   5.935   0.198   7.835
 1099TIP3    H126750   5.881   0.125   7.805
 1099TIP3    H226751   6.025   0.172   7.814
 1100TIP3   OH226752   6.122   0.031   8.165
 1100TIP3    H126753   6.211   0.067   8.165
 1100TIP3    H226754   6.117  -0.021   8.084
 1101TIP3   OH226755   6.934   0.066   8.047
 1101TIP3    H126756   6.930  -0.021   8.086
 1101TIP3    H226757   6.956   0.051   7.955
 1102TIP3   OH226758   7.253   1.602   7.946
 1102TIP3    H126759   7.198   1.602   7.867
 1102TIP3    H226760   7.252   1.693   7.975
 1103TIP3   OH226761   7.550   0.638   6.847
 1103TIP3    H126762   7.507   0.723   6.841
 1103TIP3    H226763   7.537   0.598   6.761
 1104TIP3   OH226764   7.651   0.899   7.070
 1104TIP3    H126765   7.694   0.835   7.012
 1104TIP3    H226766   7.692   0.982   7.048
 1105TIP3   OH226767   7.580   1.324   6.718
 1105TIP3    H126768   7.505   1.361   6.673
 1105TIP3    H226769   7.596   1.382   6.792
 1106TIP3   OH226770   7.562   1.139   7.602
 1106TIP3    H126771   7.526   1.186   7.527
 1106TIP3    H226772   7.548   1.047   7.582
 1107TIP3   OH226773   7.570   1.448   7.315
 1107TIP3    H126774   7.664   1.447   7.297
 1107TIP3    H226775   7.537   1.521   7.263
 1108TIP3   OH226776   7.521   0.406   7.020
 1108TIP3    H126777   7.512   0.499   6.997
 1108TIP3    H226778   7.541   0.362   6.938
 1109TIP3   OH226779   7.667   0.502   6.598
 1109TIP3    H126780   7.705   0.464   6.519
 1109TIP3    H226781   7.581   0.535   6.570
 1110TIP3   OH226782   7.607   0.845   7.709
 1110TIP3    H126783   7.559   0.808   7.784
 1110TIP3    H226784   7.543   0.845   7.638
 1111TIP3   OH226785   7.615   1.760   7.983
 1111TIP3    H126786   7.710   1.758   7.974
 1111TIP3    H226787   7.585   1.678   7.943
 1112TIP3   OH226788   7.592   1.152   8.063
 1112TIP3    H126789   7.524   1.087   8.083
 1112TIP3    H226790   7.558   1.199   7.987
 1113TIP3   OH226791   7.492   1.810   6.884
 1113TIP3    H126792   7.448   1.793   6.800
 1113TIP3    H226793   7.540   1.729   6.903
 1114TIP3   OH226794   7.547   1.707   7.184
 1114TIP3    H126795   7.538   1.645   7.111
 1114TIP3    H226796   7.629   1.753   7.167
 1115TIP3   OH226797   7.598   0.972   7.328
 1115TIP3    H126798   7.600   0.937   7.238
 1115TIP3    H226799   7.683   1.014   7.339
 1116TIP3   OH226800   7.545   0.488   7.846
 1116TIP3    H126801   7.638   0.474   7.864
 1116TIP3    H226802   7.501   0.410   7.880
 1117TIP3   OH226803   7.513   0.644   7.301
 1117TIP3    H126804   7.599   0.653   7.342
 1117TIP3    H226805   7.518   0.697   7.221
 1118TIP3   OH226806   7.566   0.299   6.773
 1118TIP3    H126807   7.477   0.284   6.741
 1118TIP3    H226808   7.612   0.336   6.697
 1119TIP3   OH226809   7.520   0.170   7.528
 1119TIP3    H126810   7.457   0.181   7.599
 1119TIP3    H226811   7.491   0.233   7.461
 1120TIP3   OH226812   7.556   1.769   6.580
 1120TIP3    H126813   7.564   1.810   6.494
 1120TIP3    H226814   7.601   1.685   6.571
 1121TIP3   OH226815   1.188   2.863   6.893
 1121TIP3    H126816   1.166   2.956   6.898
 1121TIP3    H226817   1.145   2.832   6.814
 1122TIP3   OH226818   1.100   2.819   7.319
 1122TIP3    H126819   1.114   2.762   7.394
 1122TIP3    H226820   1.043   2.768   7.261
 1123TIP3   OH226821   0.306   2.780   7.448
 1123TIP3    H126822   0.300   2.697   7.496
 1123TIP3    H226823   0.395   2.780   7.413
 1124TIP3   OH226824   1.466   3.089   7.128
 1124TIP3    H126825   1.419   3.024   7.179
 1124TIP3    H226826   1.474   3.164   7.186
 1125TIP3   OH226827   0.405   3.233   7.259
 1125TIP3    H126828   0.384   3.144   7.230
 1125TIP3    H226829   0.500   3.233   7.269
 1126TIP3   OH226830   0.112   2.593   6.782
 1126TIP3    H126831   0.101   2.598   6.687
 1126TIP3    H226832   0.026   2.568   6.814
 1127TIP3   OH226833   0.168   2.810   7.045
 1127TIP3    H126834   0.189   2.720   7.072
 1127TIP3    H226835   0.222   2.825   6.968
 1128TIP3   OH226836   1.159   3.606   7.112
 1128TIP3    H126837   1.231   3.555   7.074
 1128TIP3    H226838   1.113   3.545   7.169
 1129TIP3   OH226839   0.901   3.088   7.304
 1129TIP3    H126840   0.941   3.038   7.233
 1129TIP3    H226841   0.971   3.100   7.367
 1130TIP3   OH226842   1.799   2.192   7.407
 1130TIP3    H126843   1.811   2.270   7.462
 1130TIP3    H226844   1.858   2.206   7.333
 1131TIP3   OH226845   1.248   2.479   7.345
 1131TIP3    H126846   1.260   2.384   7.343
 1131TIP3    H226847   1.222   2.502   7.255
 1132TIP3   OH226848   0.656   2.300   6.928
 1132TIP3    H126849   0.640   2.285   7.022
 1132TIP3    H226850   0.578   2.266   6.884
 1133TIP3   OH226851   1.298   2.354   6.915
 1133TIP3    H126852   1.339   2.314   6.992
 1133TIP3    H226853   1.371   2.375   6.857
 1134TIP3   OH226854   0.200   2.550   7.128
 1134TIP3    H126855   0.281   2.509   7.159
 1134TIP3    H226856   0.169   2.491   7.059
 1135TIP3   OH226857   0.699   2.718   7.111
 1135TIP3    H126858   0.787   2.690   7.134
 1135TIP3    H226859   0.671   2.656   7.043
 1136TIP3   OH226860   1.820   2.366   7.636
 1136TIP3    H126861   1.779   2.448   7.609
 1136TIP3    H226862   1.748   2.316   7.675
 1137TIP3   OH226863   0.455   2.196   7.500
 1137TIP3    H126864   0.468   2.237   7.415
 1137TIP3    H226865   0.370   2.228   7.530
 1138TIP3   OH226866   1.095   3.126   6.844
 1138TIP3    H126867   1.029   3.109   6.777
 1138TIP3    H226868   1.094   3.221   6.855
 1139TIP3   OH226869   0.700   2.988   7.463
 1139TIP3    H126870   0.644   3.061   7.491
 1139TIP3    H226871   0.764   3.028   7.405
 1140TIP3   OH226872   1.438   2.297   7.147
 1140TIP3    H126873   1.392   2.249   7.217
 1140TIP3    H226874   1.520   2.326   7.187
 1141TIP3   OH226875   0.402   2.407   7.265
 1141TIP3    H126876   0.450   2.462   7.327
 1141TIP3    H226877   0.470   2.353   7.224
 1142TIP3   OH226878   0.553   3.207   7.553
 1142TIP3    H126879   0.560   3.301   7.536
 1142TIP3    H226880   0.459   3.193   7.567
 1143TIP3   OH226881   0.185   3.158   6.736
 1143TIP3    H126882   0.091   3.162   6.720
 1143TIP3    H226883   0.208   3.245   6.768
 1144TIP3   OH226884   1.495   3.298   7.324
 1144TIP3    H126885   1.403   3.299   7.352
 1144TIP3    H226886   1.510   3.385   7.286
 1145TIP3   OH226887   1.519   2.117   7.487
 1145TIP3    H126888   1.446   2.147   7.433
 1145TIP3    H226889   1.597   2.133   7.434
 1146TIP3   OH226890   0.813   1.876   7.265
 1146TIP3    H126891   0.779   1.790   7.243
 1146TIP3    H226892   0.736   1.927   7.290
 1147TIP3   OH226893   1.357   3.456   7.010
 1147TIP3    H126894   1.372   3.374   6.963
 1147TIP3    H226895   1.437   3.507   6.994
 1148TIP3   OH226896   1.425   3.224   6.881
 1148TIP3    H126897   1.434   3.171   6.802
 1148TIP3    H226898   1.439   3.163   6.953
 1149TIP3   OH226899   1.613   3.101   7.692
 1149TIP3    H126900   1.597   3.049   7.613
 1149TIP3    H226901   1.613   3.192   7.661
 1150TIP3   OH226902   1.062   2.791   6.653
 1150TIP3    H126903   1.004   2.867   6.663
 1150TIP3    H226904   1.040   2.756   6.567
 1151TIP3   OH226905   1.783   2.799   7.519
 1151TIP3    H126906   1.709   2.856   7.500
 1151TIP3    H226907   1.844   2.815   7.447
 1152TIP3   OH226908   1.442   2.849   6.784
 1152TIP3    H126909   1.357   2.854   6.829
 1152TIP3    H226910   1.490   2.781   6.830
 1153TIP3   OH226911   1.391   2.710   7.681
 1153TIP3    H126912   1.385   2.805   7.691
 1153TIP3    H226913   1.315   2.687   7.626
 1154TIP3   OH226914   0.538   2.886   6.941
 1154TIP3    H126915   0.519   2.850   6.854
 1154TIP3    H226916   0.596   2.821   6.981
 1155TIP3   OH226917   0.684   3.253   7.222
 1155TIP3    H126918   0.675   3.258   7.127
 1155TIP3    H226919   0.758   3.195   7.237
 1156TIP3   OH226920   0.560   2.786   7.336
 1156TIP3    H126921   0.609   2.765   7.257
 1156TIP3    H226922   0.610   2.856   7.377
 1157TIP3   OH226923   1.248   3.313   7.433
 1157TIP3    H126924   1.218   3.390   7.481
 1157TIP3    H226925   1.188   3.244   7.459
 1158TIP3   OH226926   0.692   3.229   7.791
 1158TIP3    H126927   0.631   3.289   7.834
 1158TIP3    H226928   0.650   3.210   7.707
 1159TIP3   OH226929   0.420   2.834   7.747
 1159TIP3    H126930   0.413   2.923   7.782
 1159TIP3    H226931   0.333   2.816   7.710
 1160TIP3   OH226932   1.052   3.411   6.859
 1160TIP3    H126933   1.096   3.474   6.916
 1160TIP3    H226934   1.017   3.465   6.788
 1161TIP3   OH226935   0.510   3.419   7.887
 1161TIP3    H126936   0.518   3.452   7.797
 1161TIP3    H226937   0.416   3.404   7.899
 1162TIP3   OH226938   1.631   1.962   6.510
 1162TIP3    H126939   1.539   1.974   6.535
 1162TIP3    H226940   1.679   1.976   6.592
 1163TIP3   OH226941   0.472   2.791   6.683
 1163TIP3    H126942   0.433   2.869   6.643
 1163TIP3    H226943   0.403   2.725   6.679
 1164TIP3   OH226944   1.741   3.386   6.410
 1164TIP3    H126945   1.775   3.471   6.383
 1164TIP3    H226946   1.743   3.333   6.330
 1165TIP3   OH226947   0.122   3.050   7.651
 1165TIP3    H126948   0.030   3.053   7.623
 1165TIP3    H226949   0.141   2.958   7.663
 1166TIP3   OH226950   0.125   3.338   7.288
 1166TIP3    H126951   0.195   3.278   7.264
 1166TIP3    H226952   0.158   3.383   7.366
 1167TIP3   OH226953   1.875   3.430   7.901
 1167TIP3    H126954   1.864   3.338   7.877
 1167TIP3    H226955   1.788   3.458   7.928
 1168TIP3   OH226956   0.945   3.342   7.769
 1168TIP3    H126957   0.942   3.427   7.812
 1168TIP3    H226958   0.856   3.307   7.778
 1169TIP3   OH226959   1.000   3.667   6.724
 1169TIP3    H126960   0.923   3.667   6.668
 1169TIP3    H226961   1.000   3.754   6.765
 1170TIP3   OH226962   0.384   3.583   6.926
 1170TIP3    H126963   0.407   3.547   7.012
 1170TIP3    H226964   0.319   3.522   6.891
 1171TIP3   OH226965   1.278   3.655   6.753
 1171TIP3    H126966   1.185   3.650   6.731
 1171TIP3    H226967   1.310   3.566   6.740
 1172TIP3   OH226968   1.459   2.564   7.919
 1172TIP3    H126969   1.436   2.624   7.848
 1172TIP3    H226970   1.453   2.477   7.880
 1173TIP3   OH226971   0.307   3.237   7.690
 1173TIP3    H126972   0.356   3.186   7.754
 1173TIP3    H226973   0.237   3.179   7.661
 1174TIP3   OH226974   0.565   1.981   7.350
 1174TIP3    H126975   0.589   2.048   7.286
 1174TIP3    H226976   0.508   2.026   7.412
 1175TIP3   OH226977   1.031   1.983   7.673
 1175TIP3    H126978   1.076   1.929   7.739
 1175TIP3    H226979   0.938   1.969   7.689
 1176TIP3   OH226980   1.331   2.383   7.750
 1176TIP3    H126981   1.258   2.367   7.810
 1176TIP3    H226982   1.292   2.435   7.679
 1177TIP3   OH226983   0.576   2.535   7.452
 1177TIP3    H126984   0.499   2.538   7.510
 1177TIP3    H226985   0.578   2.622   7.413
 1178TIP3   OH226986   0.607   2.565   6.903
 1178TIP3    H126987   0.513   2.555   6.892
 1178TIP3    H226988   0.640   2.476   6.913
 1179TIP3   OH226989   1.000   2.606   7.954
 1179TIP3    H126990   0.951   2.528   7.978
 1179TIP3    H226991   1.091   2.585   7.978
 1180TIP3   OH226992   1.204   2.554   7.081
 1180TIP3    H126993   1.191   2.634   7.030
 1180TIP3    H226994   1.225   2.487   7.016
 1181TIP3   OH226995   0.332   2.532   7.578
 1181TIP3    H126996   0.345   2.497   7.667
 1181TIP3    H226997   0.260   2.480   7.542
 1182TIP3   OH226998   0.649   2.384   6.281
 1182TIP3    H126999   0.629   2.384   6.188
 1182TIP3    H227000   0.719   2.448   6.291
 1183TIP3   OH227001   0.088   2.316   6.971
 1183TIP3    H127002   0.124   2.252   7.031
 1183TIP3    H227003   0.101   2.278   6.884
 1184TIP3   OH227004   0.198   2.391   6.498
 1184TIP3    H127005   0.121   2.419   6.450
 1184TIP3    H227006   0.164   2.330   6.564
 1185TIP3   OH227007   1.162   2.651   7.534
 1185TIP3    H127008   1.194   2.592   7.465
 1185TIP3    H227009   1.095   2.600   7.579
 1186TIP3   OH227010   0.875   2.175   7.029
 1186TIP3    H127011   0.823   2.225   6.967
 1186TIP3    H227012   0.828   2.182   7.112
 1187TIP3   OH227013   0.353   2.480   6.866
 1187TIP3    H127014   0.266   2.507   6.836
 1187TIP3    H227015   0.356   2.386   6.848
 1188TIP3   OH227016   0.677   2.471   6.633
 1188TIP3    H127017   0.655   2.519   6.713
 1188TIP3    H227018   0.671   2.536   6.563
 1189TIP3   OH227019   1.270   2.197   7.354
 1189TIP3    H127020   1.219   2.206   7.435
 1189TIP3    H227021   1.211   2.152   7.293
 1190TIP3   OH227022   1.599   3.780   7.990
 1190TIP3    H127023   1.615   3.812   7.902
 1190TIP3    H227024   1.671   3.814   8.042
 1191TIP3   OH227025   0.394   3.074   7.898
 1191TIP3    H127026   0.459   3.058   7.966
 1191TIP3    H227027   0.310   3.061   7.941
 1192TIP3   OH227028   0.943   2.616   7.200
 1192TIP3    H127029   1.004   2.559   7.154
 1192TIP3    H227030   0.908   2.561   7.270
 1193TIP3   OH227031   0.421   2.205   6.824
 1193TIP3    H127032   0.377   2.126   6.854
 1193TIP3    H227033   0.449   2.186   6.735
 1194TIP3   OH227034   0.853   2.484   7.418
 1194TIP3    H127035   0.758   2.471   7.415
 1194TIP3    H227036   0.875   2.476   7.511
 1195TIP3   OH227037   0.886   3.006   6.675
 1195TIP3    H127038   0.822   2.949   6.632
 1195TIP3    H227039   0.841   3.037   6.754
 1196TIP3   OH227040   1.573   2.965   7.461
 1196TIP3    H127041   1.621   3.026   7.406
 1196TIP3    H227042   1.499   2.937   7.407
 1197TIP3   OH227043   1.018   3.067   7.773
 1197TIP3    H127044   0.952   3.037   7.835
 1197TIP3    H227045   1.004   3.162   7.767
 1198TIP3   OH227046   0.416   2.976   7.173
 1198TIP3    H127047   0.447   2.953   7.085
 1198TIP3    H227048   0.440   2.901   7.227
 1199TIP3   OH227049   0.143   2.791   7.743
 1199TIP3    H127050   0.155   2.769   7.835
 1199TIP3    H227051   0.053   2.766   7.724
 1200TIP3   OH227052   0.776   2.764   7.932
 1200TIP3    H127053   0.716   2.729   7.866
 1200TIP3    H227054   0.858   2.717   7.917
 1201TIP3   OH227055   1.230   3.300   7.771
 1201TIP3    H127056   1.141   3.321   7.744
 1201TIP3    H227057   1.235   3.329   7.862
 1202TIP3   OH227058   1.812   2.563   6.551
 1202TIP3    H127059   1.754   2.527   6.484
 1202TIP3    H227060   1.821   2.655   6.527
 1203TIP3   OH227061   1.849   3.163   7.836
 1203TIP3    H127062   1.757   3.152   7.812
 1203TIP3    H227063   1.897   3.128   7.761
 1204TIP3   OH227064   1.686   3.330   6.668
 1204TIP3    H127065   1.608   3.275   6.671
 1204TIP3    H227066   1.705   3.341   6.575
 1205TIP3   OH227067   1.373   2.874   7.293
 1205TIP3    H127068   1.278   2.864   7.289
 1205TIP3    H227069   1.408   2.798   7.246
 1206TIP3   OH227070   0.619   3.319   6.952
 1206TIP3    H127071   0.652   3.398   6.910
 1206TIP3    H227072   0.535   3.301   6.909
 1207TIP3   OH227073   0.738   3.075   6.893
 1207TIP3    H127074   0.705   3.163   6.913
 1207TIP3    H227075   0.664   3.018   6.913
 1208TIP3   OH227076   0.831   3.486   7.548
 1208TIP3    H127077   0.888   3.557   7.518
 1208TIP3    H227078   0.888   3.429   7.600
 1209TIP3   OH227079   0.638   3.571   6.818
 1209TIP3    H127080   0.546   3.586   6.840
 1209TIP3    H227081   0.685   3.646   6.855
 1210TIP3   OH227082   1.100   3.085   7.504
 1210TIP3    H127083   1.074   3.063   7.593
 1210TIP3    H227084   1.146   3.007   7.472
 1211TIP3   OH227085   1.302   3.114   6.425
 1211TIP3    H127086   1.357   3.110   6.503
 1211TIP3    H227087   1.327   3.195   6.381
 1212TIP3   OH227088   1.435   3.517   7.718
 1212TIP3    H127089   1.350   3.475   7.705
 1212TIP3    H227090   1.435   3.591   7.657
 1213TIP3   OH227091   0.212   2.278   7.639
 1213TIP3    H127092   0.164   2.289   7.721
 1213TIP3    H227093   0.166   2.206   7.594
 1214TIP3   OH227094   1.498   3.073   6.640
 1214TIP3    H127095   1.470   2.993   6.684
 1214TIP3    H227096   1.592   3.062   6.627
 1215TIP3   OH227097   0.233   3.471   7.514
 1215TIP3    H127098   0.267   3.395   7.561
 1215TIP3    H227099   0.242   3.544   7.575
 1216TIP3   OH227100   0.366   3.018   6.580
 1216TIP3    H127101   0.299   3.059   6.635
 1216TIP3    H227102   0.386   3.084   6.514
 1217TIP3   OH227103   1.137   2.223   7.598
 1217TIP3    H127104   1.204   2.224   7.666
 1217TIP3    H227105   1.088   2.142   7.615
 1218TIP3   OH227106   0.933   3.410   6.505
 1218TIP3    H127107   0.873   3.483   6.525
 1218TIP3    H227108   0.990   3.444   6.436
 1219TIP3   OH227109   1.005   2.467   7.659
 1219TIP3    H127110   0.977   2.460   7.750
 1219TIP3    H227111   1.031   2.378   7.635
 1220TIP3   OH227112   1.041   2.071   6.836
 1220TIP3    H127113   0.983   2.104   6.905
 1220TIP3    H227114   1.129   2.084   6.871
 1221TIP3   OH227115   0.756   3.623   6.560
 1221TIP3    H127116   0.693   3.650   6.494
 1221TIP3    H227117   0.702   3.597   6.635
 1222TIP3   OH227118   0.587   2.212   6.583
 1222TIP3    H127119   0.615   2.302   6.603
 1222TIP3    H227120   0.563   2.215   6.490
 1223TIP3   OH227121   1.577   2.252   7.726
 1223TIP3    H127122   1.494   2.299   7.736
 1223TIP3    H227123   1.563   2.194   7.651
 1224TIP3   OH227124   1.466   2.633   7.177
 1224TIP3    H127125   1.382   2.589   7.162
 1224TIP3    H227126   1.515   2.572   7.231
 1225TIP3   OH227127   0.403   3.256   6.429
 1225TIP3    H127128   0.446   3.341   6.444
 1225TIP3    H227129   0.429   3.232   6.340
 1226TIP3   OH227130   1.557   3.577   7.320
 1226TIP3    H127131   1.539   3.645   7.256
 1226TIP3    H227132   1.653   3.575   7.326
 1227TIP3   OH227133   0.255   2.009   7.207
 1227TIP3    H127134   0.278   1.989   7.116
 1227TIP3    H227135   0.255   1.923   7.251
 1228TIP3   OH227136   0.178   3.433   6.815
 1228TIP3    H127137   0.083   3.421   6.817
 1228TIP3    H227138   0.195   3.479   6.733
 1229TIP3   OH227139   0.186   3.631   7.976
 1229TIP3    H127140   0.236   3.643   8.057
 1229TIP3    H227141   0.202   3.540   7.950
 1230TIP3   OH227142   0.578   3.504   8.141
 1230TIP3    H127143   0.666   3.468   8.153
 1230TIP3    H227144   0.554   3.481   8.052
 1231TIP3   OH227145   1.068   3.408   6.245
 1231TIP3    H127146   1.047   3.426   6.153
 1231TIP3    H227147   1.151   3.453   6.260
 1232TIP3   OH227148   1.240   3.371   8.043
 1232TIP3    H127149   1.229   3.283   8.079
 1232TIP3    H227150   1.325   3.400   8.076
 1233TIP3   OH227151   0.161   3.029   8.041
 1233TIP3    H127152   0.178   2.936   8.026
 1233TIP3    H227153   0.066   3.037   8.038
 1234TIP3   OH227154   0.793   3.038   7.959
 1234TIP3    H127155   0.751   3.086   7.887
 1234TIP3    H227156   0.782   2.946   7.936
 1235TIP3   OH227157   1.338   3.015   7.756
 1235TIP3    H127158   1.413   3.068   7.728
 1235TIP3    H227159   1.264   3.076   7.756
 1236TIP3   OH227160   0.214   2.757   8.012
 1236TIP3    H127161   0.297   2.711   8.002
 1236TIP3    H227162   0.195   2.752   8.106
 1237TIP3   OH227163   0.718   2.824   6.553
 1237TIP3    H127164   0.635   2.814   6.598
 1237TIP3    H227165   0.707   2.779   6.470
 1238TIP3   OH227166   0.613   2.645   7.741
 1238TIP3    H127167   0.538   2.705   7.737
 1238TIP3    H227168   0.675   2.680   7.676
 1239TIP3   OH227169   1.147   2.891   8.058
 1239TIP3    H127170   1.116   2.882   7.968
 1239TIP3    H227171   1.098   2.825   8.107
 1240TIP3   OH227172   0.702   2.391   7.794
 1240TIP3    H127173   0.705   2.332   7.719
 1240TIP3    H227174   0.667   2.473   7.758
 1241TIP3   OH227175   0.718   2.225   7.565
 1241TIP3    H127176   0.753   2.243   7.478
 1241TIP3    H227177   0.624   2.214   7.552
 1242TIP3   OH227178   0.808   2.780   7.605
 1242TIP3    H127179   0.890   2.763   7.558
 1242TIP3    H227180   0.769   2.853   7.559
 1243TIP3   OH227181   1.242   2.539   8.097
 1243TIP3    H127182   1.231   2.445   8.112
 1243TIP3    H227183   1.313   2.545   8.033
 1244TIP3   OH227184   1.456   2.857   7.943
 1244TIP3    H127185   1.389   2.905   7.894
 1244TIP3    H227186   1.537   2.873   7.894
 1245TIP3   OH227187   0.549   2.478   8.051
 1245TIP3    H127188   0.472   2.426   8.029
 1245TIP3    H227189   0.591   2.496   7.967
 1246TIP3   OH227190   0.751   1.961   7.663
 1246TIP3    H127191   0.739   2.048   7.626
 1246TIP3    H227192   0.680   1.909   7.624
 1247TIP3   OH227193   0.869   2.369   8.006
 1247TIP3    H127194   0.819   2.334   8.080
 1247TIP3    H227195   0.807   2.369   7.933
 1248TIP3   OH227196   1.128   2.322   7.921
 1248TIP3    H127197   1.038   2.322   7.953
 1248TIP3    H227198   1.171   2.252   7.968
 1249TIP3   OH227199   1.275   2.152   8.070
 1249TIP3    H127200   1.288   2.057   8.078
 1249TIP3    H227201   1.271   2.183   8.161
 1250TIP3   OH227202   0.359   2.294   7.988
 1250TIP3    H127203   0.376   2.228   7.921
 1250TIP3    H227204   0.341   2.243   8.067
 1251TIP3   OH227205   0.741   1.894   7.932
 1251TIP3    H127206   0.787   1.811   7.925
 1251TIP3    H227207   0.735   1.925   7.841
 1252TIP3   OH227208   0.811   2.033   8.166
 1252TIP3    H127209   0.791   1.984   8.086
 1252TIP3    H227210   0.754   2.111   8.161
 1253TIP3   OH227211   0.175   3.234   6.262
 1253TIP3    H127212   0.243   3.248   6.328
 1253TIP3    H227213   0.222   3.207   6.183
 1254TIP3   OH227214   0.042   3.733   6.851
 1254TIP3    H127215  -0.052   3.750   6.860
 1254TIP3    H227216   0.063   3.678   6.927
 1255TIP3   OH227217   0.093   3.573   7.073
 1255TIP3    H127218   0.142   3.495   7.046
 1255TIP3    H227219   0.138   3.604   7.151
 1256TIP3   OH227220   1.831   3.604   7.362
 1256TIP3    H127221   1.840   3.662   7.437
 1256TIP3    H227222   1.864   3.655   7.288
 1257TIP3   OH227223   1.766   3.569   7.656
 1257TIP3    H127224   1.722   3.499   7.607
 1257TIP3    H227225   1.805   3.525   7.731
 1258TIP3   OH227226   1.666   3.116   8.213
 1258TIP3    H127227   1.577   3.137   8.240
 1258TIP3    H227228   1.710   3.201   8.205
 1259TIP3   OH227229   1.773   2.992   6.682
 1259TIP3    H127230   1.849   3.049   6.679
 1259TIP3    H227231   1.795   2.926   6.748
 1260TIP3   OH227232   1.816   2.794   6.898
 1260TIP3    H127233   1.737   2.739   6.892
 1260TIP3    H227234   1.789   2.868   6.953
 1261TIP3   OH227235   1.822   3.091   7.386
 1261TIP3    H127236   1.863   3.032   7.323
 1261TIP3    H227237   1.839   3.179   7.353
 1262TIP3   OH227238   1.607   3.348   7.577
 1262TIP3    H127239   1.536   3.401   7.614
 1262TIP3    H227240   1.580   3.332   7.487
 1263TIP3   OH227241   1.832   2.822   6.474
 1263TIP3    H127242   1.806   2.862   6.391
 1263TIP3    H227243   1.806   2.886   6.541
 1264TIP3   OH227244   1.651   2.477   6.344
 1264TIP3    H127245   1.657   2.537   6.270
 1264TIP3    H227246   1.684   2.394   6.310
 1265TIP3   OH227247   1.581   2.649   6.923
 1265TIP3    H127248   1.563   2.562   6.888
 1265TIP3    H227249   1.544   2.646   7.012
 1266TIP3   OH227250   0.121   2.920   7.304
 1266TIP3    H127251   0.154   2.906   7.215
 1266TIP3    H227252   0.186   2.879   7.361
 1267TIP3   OH227253   1.706   2.888   7.840
 1267TIP3    H127254   1.787   2.853   7.802
 1267TIP3    H227255   1.680   2.959   7.781
 1268TIP3   OH227256   1.759   2.594   7.963
 1268TIP3    H127257   1.729   2.586   7.873
 1268TIP3    H227258   1.843   2.548   7.965
 1269TIP3   OH227259   1.534   2.402   6.779
 1269TIP3    H127260   1.564   2.311   6.785
 1269TIP3    H227261   1.577   2.436   6.701
 1270TIP3   OH227262   1.626   2.464   7.332
 1270TIP3    H127263   1.718   2.481   7.312
 1270TIP3    H227264   1.616   2.490   7.423
 1271TIP3   OH227265   1.638   2.581   7.598
 1271TIP3    H127266   1.552   2.618   7.619
 1271TIP3    H227267   1.689   2.656   7.567
 1272TIP3   OH227268   0.103   2.264   7.901
 1272TIP3    H127269   0.183   2.300   7.940
 1272TIP3    H227270   0.118   2.170   7.897
 1273TIP3   OH227271   1.842   1.991   8.080
 1273TIP3    H127272   1.902   1.925   8.043
 1273TIP3    H227273   1.838   2.060   8.014
 1274TIP3   OH227274   1.539   2.054   6.833
 1274TIP3    H127275   1.612   2.071   6.892
 1274TIP3    H227276   1.494   1.978   6.872
 1275TIP3   OH227277   0.173   2.252   7.283
 1275TIP3    H127278   0.196   2.163   7.255
 1275TIP3    H227279   0.252   2.303   7.270
 1276TIP3   OH227280   0.072   2.492   7.372
 1276TIP3    H127281   0.092   2.400   7.354
 1276TIP3    H227282   0.115   2.540   7.301
 1277TIP3   OH227283   1.750   2.220   7.944
 1277TIP3    H127284   1.689   2.231   8.016
 1277TIP3    H227285   1.695   2.218   7.866
 1278TIP3   OH227286   0.117   2.152   6.733
 1278TIP3    H127287   0.074   2.089   6.791
 1278TIP3    H227288   0.133   2.103   6.652
 1279TIP3   OH227289   1.579   3.609   6.961
 1279TIP3    H127290   1.637   3.587   6.888
 1279TIP3    H227291   1.579   3.705   6.962
 1280TIP3   OH227292   0.074   2.065   7.529
 1280TIP3    H127293  -0.020   2.048   7.541
 1280TIP3    H227294   0.083   2.079   7.435
 1281TIP3   OH227295   0.237   3.364   7.926
 1281TIP3    H127296   0.237   3.324   7.840
 1281TIP3    H227297   0.202   3.296   7.984
 1282TIP3   OH227298   0.568   3.485   7.624
 1282TIP3    H127299   0.541   3.570   7.588
 1282TIP3    H227300   0.663   3.481   7.607
 1283TIP3   OH227301   0.947   3.591   7.900
 1283TIP3    H127302   0.965   3.570   7.992
 1283TIP3    H227303   1.022   3.644   7.872
 1284TIP3   OH227304   1.177   3.741   7.857
 1284TIP3    H127305   1.249   3.710   7.803
 1284TIP3    H227306   1.218   3.768   7.939
 1285TIP3   OH227307   1.672   1.915   7.722
 1285TIP3    H127308   1.595   1.919   7.665
 1285TIP3    H227309   1.712   1.830   7.702
 1286TIP3   OH227310   0.276   3.756   7.627
 1286TIP3    H127311   0.204   3.800   7.583
 1286TIP3    H227312   0.276   3.792   7.716
 1287TIP3   OH227313   0.533   3.739   7.529
 1287TIP3    H127314   0.442   3.751   7.556
 1287TIP3    H227315   0.539   3.781   7.443
 1288TIP3   OH227316   0.982   3.690   7.441
 1288TIP3    H127317   0.930   3.724   7.368
 1288TIP3    H227318   1.000   3.767   7.494
 1289TIP3   OH227319   1.198   3.562   7.553
 1289TIP3    H127320   1.122   3.601   7.510
 1289TIP3    H227321   1.271   3.620   7.531
 1290TIP3   OH227322   1.433   3.713   7.524
 1290TIP3    H127323   1.448   3.806   7.506
 1290TIP3    H227324   1.473   3.667   7.450
 1291TIP3   OH227325   0.251   3.647   7.290
 1291TIP3    H127326   0.234   3.599   7.371
 1291TIP3    H227327   0.325   3.602   7.251
 1292TIP3   OH227328   0.445   3.494   7.179
 1292TIP3    H127329   0.427   3.402   7.201
 1292TIP3    H227330   0.534   3.509   7.211
 1293TIP3   OH227331   0.700   3.515   7.300
 1293TIP3    H127332   0.705   3.426   7.266
 1293TIP3    H227333   0.737   3.509   7.388
 1294TIP3   OH227334   1.087   2.075   7.181
 1294TIP3    H127335   1.018   2.125   7.137
 1294TIP3    H227336   1.049   1.989   7.196
 1295TIP3   OH227337   1.544   1.932   7.180
 1295TIP3    H127338   1.614   1.978   7.134
 1295TIP3    H227339   1.465   1.954   7.131
 1296TIP3   OH227340   1.739   2.037   7.019
 1296TIP3    H127341   1.798   1.973   6.979
 1296TIP3    H227342   1.793   2.116   7.028
 1297TIP3   OH227343   0.313   1.965   6.931
 1297TIP3    H127344   0.222   1.963   6.901
 1297TIP3    H227345   0.344   1.875   6.922
 1298TIP3   OH227346   0.145   1.964   6.521
 1298TIP3    H127347   0.218   1.918   6.479
 1298TIP3    H227348   0.067   1.932   6.475
 1299TIP3   OH227349   0.734   1.920   6.941
 1299TIP3    H127350   0.790   1.995   6.959
 1299TIP3    H227351   0.652   1.940   6.987
 1300TIP3   OH227352   1.307   1.978   7.045
 1300TIP3    H127353   1.242   2.034   7.087
 1300TIP3    H227354   1.272   1.889   7.056
 1301TIP3   OH227355   1.381   1.964   6.627
 1301TIP3    H127356   1.428   2.009   6.698
 1301TIP3    H227357   1.325   1.901   6.672
 1302TIP3   OH227358   0.175   3.554   6.569
 1302TIP3    H127359   0.146   3.480   6.516
 1302TIP3    H227360   0.229   3.607   6.509
 1303TIP3   OH227361   1.756   3.582   6.747
 1303TIP3    H127362   1.728   3.498   6.710
 1303TIP3    H227363   1.736   3.646   6.679
 1304TIP3   OH227364   0.254   2.013   7.899
 1304TIP3    H127365   0.205   1.933   7.919
 1304TIP3    H227366   0.341   1.997   7.936
 1305TIP3   OH227367   0.486   1.946   8.043
 1305TIP3    H127368   0.570   1.921   8.006
 1305TIP3    H227369   0.455   1.868   8.089
 1306TIP3   OH227370   1.338   1.883   8.091
 1306TIP3    H127371   1.341   1.835   8.173
 1306TIP3    H227372   1.428   1.881   8.058
 1307TIP3   OH227373   1.613   3.513   7.927
 1307TIP3    H127374   1.555   3.505   7.851
 1307TIP3    H227375   1.610   3.606   7.951
 1308TIP3   OH227376   2.951   2.893   6.949
 1308TIP3    H127377   2.884   2.961   6.956
 1308TIP3    H227378   2.962   2.879   6.855
 1309TIP3   OH227379   2.961   2.765   7.252
 1309TIP3    H127380   2.966   2.769   7.348
 1309TIP3    H227381   2.892   2.701   7.235
 1310TIP3   OH227382   2.201   2.771   7.458
 1310TIP3    H127383   2.203   2.680   7.487
 1310TIP3    H227384   2.282   2.783   7.410
 1311TIP3   OH227385   3.268   3.053   7.123
 1311TIP3    H127386   3.258   3.000   7.202
 1311TIP3    H227387   3.294   3.139   7.155
 1312TIP3   OH227388   2.349   3.224   7.269
 1312TIP3    H127389   2.315   3.142   7.234
 1312TIP3    H227390   2.440   3.227   7.238
 1313TIP3   OH227391   1.967   2.583   6.784
 1313TIP3    H127392   1.918   2.655   6.824
 1313TIP3    H227393   1.920   2.564   6.703
 1314TIP3   OH227394   2.076   2.808   7.073
 1314TIP3    H127395   2.087   2.714   7.085
 1314TIP3    H227396   2.029   2.817   6.990
 1315TIP3   OH227397   3.048   3.632   7.135
 1315TIP3    H127398   3.088   3.566   7.079
 1315TIP3    H227399   2.978   3.586   7.182
 1316TIP3   OH227400   2.798   3.076   7.308
 1316TIP3    H127401   2.830   3.014   7.242
 1316TIP3    H227402   2.869   3.082   7.372
 1317TIP3   OH227403   3.659   2.191   7.370
 1317TIP3    H127404   3.666   2.249   7.446
 1317TIP3    H227405   3.737   2.212   7.318
 1318TIP3   OH227406   3.111   2.491   7.349
 1318TIP3    H127407   3.154   2.407   7.366
 1318TIP3    H227408   3.044   2.472   7.284
 1319TIP3   OH227409   2.464   2.288   7.031
 1319TIP3    H127410   2.462   2.375   6.990
 1319TIP3    H227411   2.409   2.234   6.974
 1320TIP3   OH227412   3.259   2.265   6.926
 1320TIP3    H127413   3.311   2.255   7.006
 1320TIP3    H227414   3.321   2.300   6.861
 1321TIP3   OH227415   2.111   2.536   7.131
 1321TIP3    H127416   2.179   2.489   7.179
 1321TIP3    H227417   2.120   2.506   7.041
 1322TIP3   OH227418   2.573   2.685   7.099
 1322TIP3    H127419   2.657   2.644   7.116
 1322TIP3    H227420   2.529   2.627   7.037
 1323TIP3   OH227421   3.665   2.325   7.610
 1323TIP3    H127422   3.617   2.407   7.601
 1323TIP3    H227423   3.728   2.342   7.680
 1324TIP3   OH227424   2.335   2.217   7.485
 1324TIP3    H127425   2.305   2.269   7.411
 1324TIP3    H227426   2.259   2.211   7.543
 1325TIP3   OH227427   3.060   3.158   6.822
 1325TIP3    H127428   3.039   3.160   6.728
 1325TIP3    H227429   3.000   3.222   6.860
 1326TIP3   OH227430   2.573   3.000   7.455
 1326TIP3    H127431   2.511   3.070   7.476
 1326TIP3    H227432   2.638   3.042   7.398
 1327TIP3   OH227433   3.403   2.263   7.154
 1327TIP3    H127434   3.417   2.172   7.180
 1327TIP3    H227435   3.476   2.310   7.194
 1328TIP3   OH227436   2.306   2.366   7.248
 1328TIP3    H127437   2.370   2.419   7.296
 1328TIP3    H227438   2.356   2.329   7.175
 1329TIP3   OH227439   2.394   3.211   7.536
 1329TIP3    H127440   2.370   3.221   7.444
 1329TIP3    H227441   2.310   3.207   7.582
 1330TIP3   OH227442   2.030   3.118   6.689
 1330TIP3    H127443   2.083   3.125   6.610
 1330TIP3    H227444   2.026   3.207   6.724
 1331TIP3   OH227445   3.337   3.296   7.249
 1331TIP3    H127446   3.261   3.302   7.306
 1331TIP3    H227447   3.382   3.380   7.260
 1332TIP3   OH227448   3.403   2.111   7.484
 1332TIP3    H127449   3.332   2.157   7.440
 1332TIP3    H227450   3.480   2.129   7.430
 1333TIP3   OH227451   2.669   1.899   7.234
 1333TIP3    H127452   2.645   1.806   7.241
 1333TIP3    H227453   2.590   1.946   7.261
 1334TIP3   OH227454   3.173   3.460   6.960
 1334TIP3    H127455   3.206   3.371   6.944
 1334TIP3    H227456   3.250   3.516   6.953
 1335TIP3   OH227457   3.366   3.256   6.889
 1335TIP3    H127458   3.401   3.246   6.801
 1335TIP3    H227459   3.426   3.317   6.932
 1336TIP3   OH227460   3.462   3.120   7.693
 1336TIP3    H127461   3.468   3.065   7.615
 1336TIP3    H227462   3.450   3.209   7.659
 1337TIP3   OH227463   2.993   2.824   6.684
 1337TIP3    H127464   2.923   2.883   6.657
 1337TIP3    H227465   3.052   2.821   6.609
 1338TIP3   OH227466   3.670   2.769   7.556
 1338TIP3    H127467   3.599   2.833   7.547
 1338TIP3    H227468   3.730   2.791   7.485
 1339TIP3   OH227469   3.241   2.803   6.882
 1339TIP3    H127470   3.214   2.784   6.792
 1339TIP3    H227471   3.325   2.759   6.891
 1340TIP3   OH227472   3.270   2.663   7.707
 1340TIP3    H127473   3.267   2.735   7.770
 1340TIP3    H227474   3.206   2.687   7.640
 1341TIP3   OH227475   2.463   2.904   6.955
 1341TIP3    H127476   2.421   2.880   6.873
 1341TIP3    H227477   2.497   2.821   6.989
 1342TIP3   OH227478   2.613   3.263   7.204
 1342TIP3    H127479   2.605   3.267   7.109
 1342TIP3    H227480   2.684   3.201   7.219
 1343TIP3   OH227481   2.465   2.764   7.348
 1343TIP3    H127482   2.494   2.754   7.257
 1343TIP3    H227483   2.499   2.849   7.375
 1344TIP3   OH227484   3.129   3.311   7.422
 1344TIP3    H127485   3.102   3.394   7.460
 1344TIP3    H227486   3.064   3.248   7.454
 1345TIP3   OH227487   2.543   3.222   7.767
 1345TIP3    H127488   2.472   3.257   7.821
 1345TIP3    H227489   2.501   3.201   7.684
 1346TIP3   OH227490   3.205   2.780   6.508
 1346TIP3    H127491   3.284   2.834   6.502
 1346TIP3    H227492   3.205   2.730   6.427
 1347TIP3   OH227493   2.300   2.821   7.731
 1347TIP3    H127494   2.278   2.884   7.799
 1347TIP3    H227495   2.242   2.843   7.658
 1348TIP3   OH227496   2.913   3.379   6.902
 1348TIP3    H127497   2.994   3.428   6.917
 1348TIP3    H227498   2.869   3.425   6.831
 1349TIP3   OH227499   2.383   3.408   7.895
 1349TIP3    H127500   2.378   3.455   7.812
 1349TIP3    H227501   2.292   3.381   7.912
 1350TIP3   OH227502   3.500   1.902   6.515
 1350TIP3    H127503   3.511   1.828   6.455
 1350TIP3    H227504   3.519   1.979   6.462
 1351TIP3   OH227505   2.326   2.850   6.709
 1351TIP3    H127506   2.272   2.925   6.684
 1351TIP3    H227507   2.269   2.774   6.696
 1352TIP3   OH227508   1.967   3.048   7.619
 1352TIP3    H127509   1.917   3.061   7.538
 1352TIP3    H227510   1.959   2.954   7.637
 1353TIP3   OH227511   1.922   3.343   7.319
 1353TIP3    H127512   2.005   3.363   7.363
 1353TIP3    H227513   1.871   3.423   7.328
 1354TIP3   OH227514   3.751   3.372   7.915
 1354TIP3    H127515   3.723   3.282   7.899
 1354TIP3    H227516   3.669   3.421   7.928
 1355TIP3   OH227517   2.836   3.291   7.833
 1355TIP3    H127518   2.928   3.300   7.809
 1355TIP3    H227519   2.836   3.282   7.928
 1356TIP3   OH227520   2.917   3.689   6.674
 1356TIP3    H127521   2.894   3.711   6.583
 1356TIP3    H227522   2.890   3.765   6.725
 1357TIP3   OH227523   2.245   3.570   6.910
 1357TIP3    H127524   2.258   3.534   6.997
 1357TIP3    H227525   2.176   3.516   6.872
 1358TIP3   OH227526   3.179   3.663   6.371
 1358TIP3    H127527   3.188   3.575   6.333
 1358TIP3    H227528   3.197   3.651   6.464
 1359TIP3   OH227529   3.189   3.662   6.664
 1359TIP3    H127530   3.094   3.660   6.680
 1359TIP3    H227531   3.227   3.613   6.736
 1360TIP3   OH227532   3.417   2.526   7.919
 1360TIP3    H127533   3.368   2.569   7.849
 1360TIP3    H227534   3.424   2.435   7.891
 1361TIP3   OH227535   2.162   3.230   7.683
 1361TIP3    H127536   2.151   3.241   7.777
 1361TIP3    H227537   2.099   3.163   7.658
 1362TIP3   OH227538   2.434   2.023   7.308
 1362TIP3    H127539   2.354   2.010   7.256
 1362TIP3    H227540   2.412   2.092   7.370
 1363TIP3   OH227541   2.916   1.998   7.658
 1363TIP3    H127542   2.961   1.949   7.727
 1363TIP3    H227543   2.823   1.986   7.678
 1364TIP3   OH227544   3.195   2.388   7.719
 1364TIP3    H127545   3.131   2.380   7.790
 1364TIP3    H227546   3.207   2.482   7.708
 1365TIP3   OH227547   2.460   2.508   7.431
 1365TIP3    H127548   2.386   2.505   7.491
 1365TIP3    H227549   2.466   2.599   7.403
 1366TIP3   OH227550   2.443   2.534   6.913
 1366TIP3    H127551   2.350   2.518   6.898
 1366TIP3    H227552   2.483   2.526   6.826
 1367TIP3   OH227553   3.005   2.571   6.795
 1367TIP3    H127554   2.976   2.654   6.756
 1367TIP3    H227555   3.081   2.546   6.743
 1368TIP3   OH227556   2.895   2.602   7.938
 1368TIP3    H127557   2.844   2.526   7.968
 1368TIP3    H227558   2.982   2.589   7.975
 1369TIP3   OH227559   3.112   2.494   7.032
 1369TIP3    H127560   3.064   2.504   6.951
 1369TIP3    H227561   3.157   2.410   7.024
 1370TIP3   OH227562   2.226   2.514   7.580
 1370TIP3    H127563   2.242   2.539   7.671
 1370TIP3    H227564   2.172   2.435   7.585
 1371TIP3   OH227565   1.902   2.251   7.022
 1371TIP3    H127566   1.969   2.261   7.089
 1371TIP3    H227567   1.950   2.255   6.939
 1372TIP3   OH227568   2.005   2.367   6.530
 1372TIP3    H127569   2.018   2.356   6.436
 1372TIP3    H227570   1.940   2.437   6.538
 1373TIP3   OH227571   3.061   2.697   7.517
 1373TIP3    H127572   3.083   2.622   7.462
 1373TIP3    H227573   2.988   2.667   7.570
 1374TIP3   OH227574   2.743   2.311   7.051
 1374TIP3    H127575   2.648   2.295   7.053
 1374TIP3    H227576   2.781   2.228   7.081
 1375TIP3   OH227577   2.184   2.442   6.883
 1375TIP3    H127578   2.110   2.477   6.833
 1375TIP3    H227579   2.197   2.354   6.847
 1376TIP3   OH227580   2.558   2.475   6.674
 1376TIP3    H127581   2.638   2.423   6.675
 1376TIP3    H227582   2.509   2.441   6.599
 1377TIP3   OH227583   3.160   2.218   7.371
 1377TIP3    H127584   3.088   2.220   7.434
 1377TIP3    H227585   3.133   2.154   7.305
 1378TIP3   OH227586   3.438   3.769   8.029
 1378TIP3    H127587   3.439   3.797   7.938
 1378TIP3    H227588   3.492   3.834   8.074
 1379TIP3   OH227589   2.257   2.992   7.947
 1379TIP3    H127590   2.317   3.005   8.021
 1379TIP3    H227591   2.171   3.013   7.983
 1380TIP3   OH227592   2.809   2.544   7.186
 1380TIP3    H127593   2.800   2.470   7.127
 1380TIP3    H227594   2.783   2.510   7.272
 1381TIP3   OH227595   2.298   2.179   6.841
 1381TIP3    H127596   2.238   2.105   6.848
 1381TIP3    H227597   2.329   2.176   6.750
 1382TIP3   OH227598   2.729   2.450   7.430
 1382TIP3    H127599   2.637   2.476   7.439
 1382TIP3    H227600   2.772   2.484   7.508
 1383TIP3   OH227601   2.789   3.009   6.666
 1383TIP3    H127602   2.715   2.968   6.621
 1383TIP3    H227603   2.754   3.037   6.751
 1384TIP3   OH227604   3.470   2.943   7.475
 1384TIP3    H127605   3.522   2.966   7.398
 1384TIP3    H227606   3.387   2.912   7.439
 1385TIP3   OH227607   3.123   2.259   6.408
 1385TIP3    H127608   3.083   2.198   6.345
 1385TIP3    H227609   3.192   2.303   6.359
 1386TIP3   OH227610   2.896   3.007   7.753
 1386TIP3    H127611   2.941   2.971   7.829
 1386TIP3    H227612   2.874   3.097   7.778
 1387TIP3   OH227613   3.238   2.516   6.661
 1387TIP3    H127614   3.327   2.488   6.680
 1387TIP3    H227615   3.246   2.570   6.582
 1388TIP3   OH227616   2.296   2.972   7.169
 1388TIP3    H127617   2.356   2.956   7.097
 1388TIP3    H227618   2.218   2.921   7.147
 1389TIP3   OH227619   2.982   3.177   6.559
 1389TIP3    H127620   2.945   3.265   6.558
 1389TIP3    H227621   2.907   3.120   6.572
 1390TIP3   OH227622   1.953   2.796   7.763
 1390TIP3    H127623   2.011   2.754   7.827
 1390TIP3    H227624   1.943   2.732   7.693
 1391TIP3   OH227625   2.649   2.762   7.939
 1391TIP3    H127626   2.607   2.734   7.858
 1391TIP3    H227627   2.737   2.726   7.933
 1392TIP3   OH227628   3.103   3.277   7.751
 1392TIP3    H127629   3.156   3.326   7.688
 1392TIP3    H227630   3.122   3.319   7.835
 1393TIP3   OH227631   3.686   2.486   6.546
 1393TIP3    H127632   3.648   2.533   6.472
 1393TIP3    H227633   3.751   2.428   6.506
 1394TIP3   OH227634   3.699   3.097   7.830
 1394TIP3    H127635   3.615   3.119   7.791
 1394TIP3    H227636   3.759   3.090   7.756
 1395TIP3   OH227637   3.249   2.851   7.341
 1395TIP3    H127638   3.179   2.811   7.392
 1395TIP3    H227639   3.279   2.781   7.283
 1396TIP3   OH227640   2.537   3.294   6.938
 1396TIP3    H127641   2.547   3.385   6.910
 1396TIP3    H227642   2.459   3.263   6.893
 1397TIP3   OH227643   2.692   3.060   6.926
 1397TIP3    H127644   2.658   3.149   6.921
 1397TIP3    H227645   2.615   3.005   6.937
 1398TIP3   OH227646   2.762   3.477   7.547
 1398TIP3    H127647   2.785   3.563   7.512
 1398TIP3    H227648   2.834   3.420   7.521
 1399TIP3   OH227649   2.515   3.553   6.843
 1399TIP3    H127650   2.421   3.572   6.853
 1399TIP3    H227651   2.558   3.635   6.867
 1400TIP3   OH227652   3.000   3.070   7.500
 1400TIP3    H127653   2.968   3.042   7.586
 1400TIP3    H227654   3.088   3.032   7.493
 1401TIP3   OH227655   3.284   3.596   7.766
 1401TIP3    H127656   3.270   3.558   7.680
 1401TIP3    H227657   3.328   3.679   7.749
 1402TIP3   OH227658   2.102   2.264   7.663
 1402TIP3    H127659   2.010   2.286   7.646
 1402TIP3    H227660   2.099   2.178   7.704
 1403TIP3   OH227661   3.386   3.042   6.695
 1403TIP3    H127662   3.477   3.015   6.693
 1403TIP3    H227663   3.370   3.078   6.608
 1404TIP3   OH227664   2.115   3.448   7.509
 1404TIP3    H127665   2.130   3.373   7.567
 1404TIP3    H227666   2.065   3.509   7.563
 1405TIP3   OH227667   2.511   3.244   6.536
 1405TIP3    H127668   2.577   3.205   6.478
 1405TIP3    H227669   2.538   3.335   6.546
 1406TIP3   OH227670   2.988   2.255   7.585
 1406TIP3    H127671   3.068   2.275   7.634
 1406TIP3    H227672   2.963   2.168   7.616
 1407TIP3   OH227673   3.105   2.268   6.673
 1407TIP3    H127674   3.098   2.251   6.579
 1407TIP3    H227675   3.147   2.354   6.678
 1408TIP3   OH227676   2.868   3.425   6.595
 1408TIP3    H127677   2.774   3.437   6.579
 1408TIP3    H227678   2.901   3.513   6.613
 1409TIP3   OH227679   2.809   2.355   6.780
 1409TIP3    H127680   2.871   2.427   6.770
 1409TIP3    H227681   2.777   2.364   6.870
 1410TIP3   OH227682   2.888   2.515   7.652
 1410TIP3    H127683   2.891   2.529   7.746
 1410TIP3    H227684   2.919   2.425   7.640
 1411TIP3   OH227685   2.911   2.102   6.835
 1411TIP3    H127686   2.871   2.089   6.921
 1411TIP3    H227687   2.885   2.191   6.810
 1412TIP3   OH227688   2.606   3.507   6.585
 1412TIP3    H127689   2.609   3.595   6.548
 1412TIP3    H227690   2.568   3.519   6.672
 1413TIP3   OH227691   2.426   2.189   6.592
 1413TIP3    H127692   2.389   2.187   6.504
 1413TIP3    H227693   2.516   2.159   6.581
 1414TIP3   OH227694   3.440   2.282   7.782
 1414TIP3    H127695   3.350   2.294   7.752
 1414TIP3    H227696   3.489   2.264   7.702
 1415TIP3   OH227697   3.307   2.637   7.176
 1415TIP3    H127698   3.248   2.563   7.161
 1415TIP3    H227699   3.381   2.599   7.224
 1416TIP3   OH227700   2.241   3.158   6.493
 1416TIP3    H127701   2.331   3.188   6.506
 1416TIP3    H227702   2.203   3.223   6.434
 1417TIP3   OH227703   3.449   3.552   7.340
 1417TIP3    H127704   3.448   3.619   7.271
 1417TIP3    H227705   3.536   3.559   7.379
 1418TIP3   OH227706   2.180   1.990   7.204
 1418TIP3    H127707   2.168   1.983   7.109
 1418TIP3    H227708   2.145   1.908   7.238
 1419TIP3   OH227709   2.042   3.415   6.770
 1419TIP3    H127710   1.951   3.438   6.788
 1419TIP3    H227711   2.056   3.442   6.679
 1420TIP3   OH227712   2.009   3.685   7.966
 1420TIP3    H127713   2.067   3.660   8.037
 1420TIP3    H227714   1.967   3.604   7.938
 1421TIP3   OH227715   2.433   3.477   8.158
 1421TIP3    H127716   2.528   3.472   8.168
 1421TIP3    H227717   2.418   3.459   8.065
 1422TIP3   OH227718   3.105   3.369   8.008
 1422TIP3    H127719   3.091   3.289   8.060
 1422TIP3    H227720   3.184   3.408   8.045
 1423TIP3   OH227721   1.993   3.033   8.040
 1423TIP3    H127722   1.967   2.942   8.026
 1423TIP3    H227723   1.943   3.083   7.975
 1424TIP3   OH227724   2.660   3.057   7.956
 1424TIP3    H127725   2.633   3.104   7.877
 1424TIP3    H227726   2.682   2.969   7.925
 1425TIP3   OH227727   3.216   3.023   7.761
 1425TIP3    H127728   3.305   3.054   7.743
 1425TIP3    H227729   3.162   3.103   7.758
 1426TIP3   OH227730   2.112   2.698   7.972
 1426TIP3    H127731   2.200   2.661   7.959
 1426TIP3    H227732   2.115   2.734   8.060
 1427TIP3   OH227733   2.575   2.886   6.558
 1427TIP3    H127734   2.489   2.868   6.596
 1427TIP3    H227735   2.559   2.898   6.465
 1428TIP3   OH227736   2.522   2.667   7.709
 1428TIP3    H127737   2.443   2.721   7.706
 1428TIP3    H227738   2.587   2.716   7.658
 1429TIP3   OH227739   3.013   2.899   8.037
 1429TIP3    H127740   3.097   2.861   8.010
 1429TIP3    H227741   2.978   2.838   8.101
 1430TIP3   OH227742   2.551   2.418   7.810
 1430TIP3    H127743   2.562   2.350   7.744
 1430TIP3    H227744   2.544   2.499   7.759
 1431TIP3   OH227745   2.589   2.244   7.593
 1431TIP3    H127746   2.645   2.282   7.525
 1431TIP3    H227747   2.503   2.239   7.551
 1432TIP3   OH227748   2.718   2.833   7.618
 1432TIP3    H127749   2.785   2.888   7.657
 1432TIP3    H227750   2.671   2.891   7.558
 1433TIP3   OH227751   3.133   2.542   8.105
 1433TIP3    H127752   3.138   2.462   8.156
 1433TIP3    H227753   3.219   2.550   8.063
 1434TIP3   OH227754   3.286   2.838   7.942
 1434TIP3    H127755   3.254   2.909   7.887
 1434TIP3    H227756   3.381   2.837   7.928
 1435TIP3   OH227757   2.365   2.545   7.992
 1435TIP3    H127758   2.308   2.469   8.003
 1435TIP3    H227759   2.432   2.517   7.929
 1436TIP3   OH227760   2.639   1.979   7.666
 1436TIP3    H127761   2.621   2.070   7.642
 1436TIP3    H227762   2.572   1.928   7.621
 1437TIP3   OH227763   2.720   2.407   8.022
 1437TIP3    H127764   2.668   2.349   8.078
 1437TIP3    H227765   2.671   2.412   7.940
 1438TIP3   OH227766   3.005   2.324   7.905
 1438TIP3    H127767   2.917   2.311   7.938
 1438TIP3    H227768   3.059   2.262   7.953
 1439TIP3   OH227769   3.138   2.152   8.065
 1439TIP3    H127770   3.166   2.061   8.076
 1439TIP3    H227771   3.162   2.195   8.147
 1440TIP3   OH227772   2.229   2.297   7.994
 1440TIP3    H127773   2.218   2.233   7.923
 1440TIP3    H227774   2.204   2.249   8.073
 1441TIP3   OH227775   2.623   1.894   7.929
 1441TIP3    H127776   2.674   1.813   7.923
 1441TIP3    H227777   2.621   1.929   7.840
 1442TIP3   OH227778   2.679   2.041   8.159
 1442TIP3    H127779   2.670   1.985   8.081
 1442TIP3    H227780   2.623   2.116   8.142
 1443TIP3   OH227781   2.646   3.774   6.491
 1443TIP3    H127782   2.729   3.759   6.444
 1443TIP3    H227783   2.581   3.784   6.422
 1444TIP3   OH227784   1.872   3.758   6.922
 1444TIP3    H127785   1.838   3.717   6.842
 1444TIP3    H227786   1.897   3.684   6.977
 1445TIP3   OH227787   1.951   3.556   7.087
 1445TIP3    H127788   1.924   3.465   7.098
 1445TIP3    H227789   2.018   3.569   7.154
 1446TIP3   OH227790   3.551   3.175   8.193
 1446TIP3    H127791   3.467   3.191   8.236
 1446TIP3    H227792   3.600   3.257   8.203
 1447TIP3   OH227793   3.653   2.972   6.684
 1447TIP3    H127794   3.729   3.026   6.664
 1447TIP3    H227795   3.681   2.914   6.755
 1448TIP3   OH227796   3.710   2.803   6.892
 1448TIP3    H127797   3.633   2.755   6.923
 1448TIP3    H227798   3.768   2.807   6.967
 1449TIP3   OH227799   3.433   3.379   7.599
 1449TIP3    H127800   3.498   3.436   7.640
 1449TIP3    H227801   3.436   3.400   7.506
 1450TIP3   OH227802   3.684   2.894   6.412
 1450TIP3    H127803   3.600   2.857   6.384
 1450TIP3    H227804   3.673   2.912   6.505
 1451TIP3   OH227805   3.468   2.650   6.929
 1451TIP3    H127806   3.486   2.571   6.879
 1451TIP3    H227807   3.443   2.619   7.016
 1452TIP3   OH227808   1.971   2.843   7.324
 1452TIP3    H127809   1.996   2.843   7.231
 1452TIP3    H227810   2.053   2.833   7.371
 1453TIP3   OH227811   3.557   2.858   7.884
 1453TIP3    H127812   3.614   2.782   7.874
 1453TIP3    H227813   3.606   2.930   7.846
 1454TIP3   OH227814   3.680   2.613   7.918
 1454TIP3    H127815   3.588   2.586   7.920
 1454TIP3    H227816   3.729   2.531   7.909
 1455TIP3   OH227817   3.489   2.424   6.746
 1455TIP3    H127818   3.506   2.331   6.753
 1455TIP3    H227819   3.556   2.456   6.685
 1456TIP3   OH227820   3.509   2.514   7.312
 1456TIP3    H127821   3.604   2.519   7.300
 1456TIP3    H227822   3.497   2.506   7.406
 1457TIP3   OH227823   3.511   2.552   7.591
 1457TIP3    H127824   3.431   2.592   7.625
 1457TIP3    H227825   3.571   2.625   7.580
 1458TIP3   OH227826   1.958   2.404   7.991
 1458TIP3    H127827   2.043   2.373   7.959
 1458TIP3    H227828   1.897   2.335   7.966
 1459TIP3   OH227829   3.724   1.975   8.092
 1459TIP3    H127830   3.788   1.912   8.060
 1459TIP3    H227831   3.722   2.044   8.026
 1460TIP3   OH227832   3.531   2.152   6.753
 1460TIP3    H127833   3.549   2.111   6.838
 1460TIP3    H227834   3.512   2.079   6.694
 1461TIP3   OH227835   2.058   2.232   7.258
 1461TIP3    H127836   2.092   2.143   7.247
 1461TIP3    H227837   2.136   2.287   7.255
 1462TIP3   OH227838   1.895   2.544   7.318
 1462TIP3    H127839   1.955   2.516   7.250
 1462TIP3    H227840   1.911   2.638   7.329
 1463TIP3   OH227841   3.662   2.161   7.896
 1463TIP3    H127842   3.578   2.206   7.890
 1463TIP3    H227843   3.657   2.093   7.828
 1464TIP3   OH227844   1.971   2.215   6.749
 1464TIP3    H127845   1.883   2.184   6.729
 1464TIP3    H227846   1.994   2.273   6.676
 1465TIP3   OH227847   3.398   3.602   6.926
 1465TIP3    H127848   3.458   3.614   6.852
 1465TIP3    H227849   3.433   3.657   6.995
 1466TIP3   OH227850   1.905   2.013   7.590
 1466TIP3    H127851   1.828   1.987   7.641
 1466TIP3    H227852   1.869   2.065   7.518
 1467TIP3   OH227853   2.130   3.320   7.953
 1467TIP3    H127854   2.045   3.364   7.945
 1467TIP3    H227855   2.134   3.292   8.045
 1468TIP3   OH227856   2.458   3.489   7.639
 1468TIP3    H127857   2.440   3.575   7.600
 1468TIP3    H227858   2.419   3.426   7.578
 1469TIP3   OH227859   2.785   3.592   7.876
 1469TIP3    H127860   2.808   3.563   7.963
 1469TIP3    H227861   2.863   3.637   7.844
 1470TIP3   OH227862   3.039   3.712   7.855
 1470TIP3    H127863   3.115   3.666   7.820
 1470TIP3    H227864   3.068   3.743   7.941
 1471TIP3   OH227865   3.580   1.942   7.726
 1471TIP3    H127866   3.502   1.947   7.671
 1471TIP3    H227867   3.614   1.853   7.712
 1472TIP3   OH227868   2.156   3.784   7.613
 1472TIP3    H127869   2.072   3.804   7.572
 1472TIP3    H227870   2.154   3.830   7.697
 1473TIP3   OH227871   2.410   3.733   7.527
 1473TIP3    H127872   2.320   3.750   7.552
 1473TIP3    H227873   2.420   3.778   7.443
 1474TIP3   OH227874   2.858   3.701   7.426
 1474TIP3    H127875   2.805   3.741   7.356
 1474TIP3    H227876   2.878   3.774   7.485
 1475TIP3   OH227877   3.072   3.558   7.529
 1475TIP3    H127878   2.999   3.608   7.492
 1475TIP3    H227879   3.147   3.616   7.522
 1476TIP3   OH227880   3.292   3.719   7.503
 1476TIP3    H127881   3.328   3.808   7.499
 1476TIP3    H227882   3.345   3.669   7.441
 1477TIP3   OH227883   2.135   3.617   7.286
 1477TIP3    H127884   2.130   3.569   7.369
 1477TIP3    H227885   2.211   3.579   7.241
 1478TIP3   OH227886   2.339   3.485   7.169
 1478TIP3    H127887   2.332   3.394   7.197
 1478TIP3    H227888   2.427   3.512   7.195
 1479TIP3   OH227889   2.595   3.522   7.294
 1479TIP3    H127890   2.609   3.435   7.258
 1479TIP3    H227891   2.621   3.515   7.386
 1480TIP3   OH227892   2.855   2.052   7.102
 1480TIP3    H127893   2.790   2.003   7.152
 1480TIP3    H227894   2.929   1.992   7.095
 1481TIP3   OH227895   3.415   1.977   7.182
 1481TIP3    H127896   3.490   1.999   7.126
 1481TIP3    H227897   3.348   1.949   7.120
 1482TIP3   OH227898   3.606   2.053   7.005
 1482TIP3    H127899   3.661   1.983   6.968
 1482TIP3    H227900   3.666   2.127   7.016
 1483TIP3   OH227901   2.143   1.954   6.934
 1483TIP3    H127902   2.056   1.942   6.895
 1483TIP3    H227903   2.187   1.871   6.919
 1484TIP3   OH227904   2.094   2.009   6.573
 1484TIP3    H127905   2.132   2.045   6.492
 1484TIP3    H227906   2.061   2.086   6.620
 1485TIP3   OH227907   2.616   1.895   6.924
 1485TIP3    H127908   2.588   1.980   6.890
 1485TIP3    H227909   2.628   1.910   7.018
 1486TIP3   OH227910   3.180   1.929   6.984
 1486TIP3    H127911   3.255   1.876   6.956
 1486TIP3    H227912   3.123   1.868   7.029
 1487TIP3   OH227913   3.286   1.949   6.689
 1487TIP3    H127914   3.347   1.944   6.615
 1487TIP3    H227915   3.258   1.858   6.703
 1488TIP3   OH227916   2.718   2.138   6.577
 1488TIP3    H127917   2.762   2.184   6.647
 1488TIP3    H227918   2.755   2.175   6.497
 1489TIP3   OH227919   2.900   3.709   6.395
 1489TIP3    H127920   2.992   3.695   6.373
 1489TIP3    H227921   2.851   3.655   6.332
 1490TIP3   OH227922   3.561   3.638   6.709
 1490TIP3    H127923   3.594   3.572   6.648
 1490TIP3    H227924   3.550   3.717   6.656
 1491TIP3   OH227925   2.149   2.029   7.872
 1491TIP3    H127926   2.085   1.961   7.894
 1491TIP3    H227927   2.227   2.004   7.922
 1492TIP3   OH227928   2.352   1.949   8.044
 1492TIP3    H127929   2.437   1.918   8.012
 1492TIP3    H227930   2.313   1.872   8.086
 1493TIP3   OH227931   3.223   1.885   8.088
 1493TIP3    H127932   3.228   1.835   8.169
 1493TIP3    H227933   3.312   1.883   8.053
 1494TIP3   OH227934   3.498   3.510   7.929
 1494TIP3    H127935   3.422   3.521   7.872
 1494TIP3    H227936   3.507   3.594   7.974
 1495TIP3   OH227937   4.969   2.884   6.929
 1495TIP3    H127938   4.950   2.977   6.940
 1495TIP3    H227939   4.918   2.858   6.852
 1496TIP3   OH227940   4.848   2.819   7.318
 1496TIP3    H127941   4.878   2.767   7.392
 1496TIP3    H227942   4.803   2.757   7.261
 1497TIP3   OH227943   4.037   2.751   7.469
 1497TIP3    H127944   4.048   2.667   7.513
 1497TIP3    H227945   4.126   2.784   7.457
 1498TIP3   OH227946   5.244   3.113   7.134
 1498TIP3    H127947   5.195   3.041   7.174
 1498TIP3    H227948   5.251   3.179   7.202
 1499TIP3   OH227949   4.206   3.232   7.244
 1499TIP3    H127950   4.171   3.143   7.230
 1499TIP3    H227951   4.301   3.220   7.247
 1500TIP3   OH227952   3.828   2.572   6.779
 1500TIP3    H127953   3.790   2.657   6.799
 1500TIP3    H227954   3.783   2.544   6.699
 1501TIP3   OH227955   3.899   2.811   7.102
 1501TIP3    H127956   3.932   2.722   7.109
 1501TIP3    H227957   3.977   2.867   7.106
 1502TIP3   OH227958   4.905   3.600   7.200
 1502TIP3    H127959   4.959   3.584   7.123
 1502TIP3    H227960   4.897   3.514   7.242
 1503TIP3   OH227961   4.671   3.062   7.322
 1503TIP3    H127962   4.714   2.989   7.278
 1503TIP3    H227963   4.738   3.097   7.380
 1504TIP3   OH227964   5.556   2.185   7.381
 1504TIP3    H127965   5.558   2.250   7.451
 1504TIP3    H227966   5.632   2.206   7.327
 1505TIP3   OH227967   5.022   2.469   7.343
 1505TIP3    H127968   5.036   2.374   7.346
 1505TIP3    H227969   5.005   2.488   7.251
 1506TIP3   OH227970   4.344   2.292   7.050
 1506TIP3    H127971   4.347   2.376   7.003
 1506TIP3    H227972   4.329   2.227   6.982
 1507TIP3   OH227973   5.111   2.328   6.935
 1507TIP3    H127974   5.167   2.294   7.005
 1507TIP3    H227975   5.173   2.365   6.872
 1508TIP3   OH227976   4.001   2.552   7.135
 1508TIP3    H127977   4.068   2.506   7.186
 1508TIP3    H227978   4.015   2.522   7.045
 1509TIP3   OH227979   4.458   2.685   7.105
 1509TIP3    H127980   4.548   2.657   7.122
 1509TIP3    H227981   4.426   2.625   7.038
 1510TIP3   OH227982   5.561   2.351   7.601
 1510TIP3    H127983   5.503   2.427   7.595
 1510TIP3    H227984   5.610   2.364   7.682
 1511TIP3   OH227985   4.230   2.217   7.482
 1511TIP3    H127986   4.201   2.273   7.409
 1511TIP3    H227987   4.156   2.215   7.542
 1512TIP3   OH227988   4.907   3.149   6.901
 1512TIP3    H127989   4.862   3.163   6.817
 1512TIP3    H227990   4.988   3.199   6.893
 1513TIP3   OH227991   4.447   2.978   7.459
 1513TIP3    H127992   4.400   3.054   7.492
 1513TIP3    H227993   4.521   3.014   7.410
 1514TIP3   OH227994   5.290   2.266   7.134
 1514TIP3    H127995   5.371   2.219   7.114
 1514TIP3    H227996   5.316   2.332   7.198
 1515TIP3   OH227997   4.182   2.374   7.259
 1515TIP3    H127998   4.245   2.429   7.305
 1515TIP3    H227999   4.232   2.337   7.186
 1516TIP3   OH228000   4.316   3.196   7.566
 1516TIP3    H128001   4.324   3.292   7.559
 1516TIP3    H228002   4.228   3.182   7.600
 1517TIP3   OH228003   3.875   3.139   6.606
 1517TIP3    H128004   3.796   3.190   6.587
 1517TIP3    H228005   3.930   3.198   6.657
 1518TIP3   OH228006   5.265   3.310   7.336
 1518TIP3    H128007   5.171   3.312   7.358
 1518TIP3    H228008   5.283   3.399   7.304
 1519TIP3   OH228009   5.277   2.096   7.458
 1519TIP3    H128010   5.205   2.140   7.411
 1519TIP3    H228011   5.356   2.123   7.411
 1520TIP3   OH228012   4.569   1.907   7.246
 1520TIP3    H128013   4.558   1.884   7.154
 1520TIP3    H228014   4.488   1.951   7.271
 1521TIP3   OH228015   5.078   3.501   7.004
 1521TIP3    H128016   5.090   3.412   6.971
 1521TIP3    H228017   5.152   3.550   6.970
 1522TIP3   OH228018   5.167   3.249   6.902
 1522TIP3    H128019   5.210   3.212   6.825
 1522TIP3    H228020   5.200   3.198   6.975
 1523TIP3   OH228021   5.383   3.094   7.688
 1523TIP3    H128022   5.370   3.041   7.609
 1523TIP3    H228023   5.390   3.184   7.656
 1524TIP3   OH228024   4.849   2.821   6.687
 1524TIP3    H128025   4.786   2.885   6.656
 1524TIP3    H228026   4.899   2.796   6.609
 1525TIP3   OH228027   4.767   2.685   6.370
 1525TIP3    H128028   4.843   2.702   6.315
 1525TIP3    H228029   4.728   2.605   6.333
 1526TIP3   OH228030   5.553   2.780   7.489
 1526TIP3    H128031   5.478   2.839   7.482
 1526TIP3    H228032   5.612   2.808   7.420
 1527TIP3   OH228033   5.187   2.839   6.763
 1527TIP3    H128034   5.116   2.855   6.825
 1527TIP3    H228035   5.249   2.785   6.812
 1528TIP3   OH228036   5.155   2.664   7.697
 1528TIP3    H128037   5.146   2.743   7.751
 1528TIP3    H228038   5.087   2.673   7.630
 1529TIP3   OH228039   4.310   2.892   6.982
 1529TIP3    H128040   4.274   2.857   6.901
 1529TIP3    H228041   4.370   2.824   7.013
 1530TIP3   OH228042   4.487   3.245   7.207
 1530TIP3    H128043   4.501   3.246   7.112
 1530TIP3    H228044   4.555   3.185   7.240
 1531TIP3   OH228045   4.315   2.780   7.322
 1531TIP3    H128046   4.366   2.758   7.244
 1531TIP3    H228047   4.367   2.848   7.366
 1532TIP3   OH228048   5.008   3.331   7.422
 1532TIP3    H128049   4.989   3.398   7.487
 1532TIP3    H228050   4.959   3.254   7.452
 1533TIP3   OH228051   4.471   3.210   7.795
 1533TIP3    H128052   4.410   3.270   7.839
 1533TIP3    H228053   4.428   3.189   7.712
 1534TIP3   OH228054   5.075   2.748   6.523
 1534TIP3    H128055   5.121   2.794   6.594
 1534TIP3    H228056   5.091   2.801   6.445
 1535TIP3   OH228057   4.155   2.826   7.753
 1535TIP3    H128058   4.160   2.905   7.808
 1535TIP3    H228059   4.063   2.818   7.730
 1536TIP3   OH228060   4.282   3.389   7.882
 1536TIP3    H128061   4.281   3.429   7.794
 1536TIP3    H228062   4.190   3.376   7.903
 1537TIP3   OH228063   5.402   1.898   6.531
 1537TIP3    H128064   5.322   1.845   6.530
 1537TIP3    H228065   5.371   1.988   6.523
 1538TIP3   OH228066   4.205   2.786   6.751
 1538TIP3    H128067   4.130   2.811   6.696
 1538TIP3    H228068   4.249   2.717   6.701
 1539TIP3   OH228069   5.604   3.429   6.357
 1539TIP3    H128070   5.527   3.464   6.310
 1539TIP3    H228071   5.645   3.370   6.293
 1540TIP3   OH228072   3.854   3.029   7.611
 1540TIP3    H128073   3.853   3.008   7.518
 1540TIP3    H228074   3.870   2.946   7.656
 1541TIP3   OH228075   5.646   3.409   7.895
 1541TIP3    H128076   5.635   3.315   7.879
 1541TIP3    H228077   5.561   3.437   7.930
 1542TIP3   OH228078   4.713   3.334   7.757
 1542TIP3    H128079   4.711   3.418   7.804
 1542TIP3    H228080   4.627   3.296   7.773
 1543TIP3   OH228081   4.138   3.578   6.879
 1543TIP3    H128082   4.179   3.541   6.957
 1543TIP3    H228083   4.102   3.502   6.832
 1544TIP3   OH228084   5.329   2.513   7.906
 1544TIP3    H128085   5.268   2.558   7.848
 1544TIP3    H228086   5.328   2.422   7.876
 1545TIP3   OH228087   4.073   3.183   7.690
 1545TIP3    H128088   4.087   3.155   7.781
 1545TIP3    H228089   3.994   3.137   7.662
 1546TIP3   OH228090   4.321   2.019   7.308
 1546TIP3    H128091   4.243   2.011   7.253
 1546TIP3    H228092   4.303   2.094   7.365
 1547TIP3   OH228093   4.807   1.987   7.642
 1547TIP3    H128094   4.855   1.948   7.715
 1547TIP3    H228095   4.715   1.978   7.666
 1548TIP3   OH228096   5.091   2.382   7.722
 1548TIP3    H128097   5.025   2.367   7.790
 1548TIP3    H228098   5.092   2.477   7.710
 1549TIP3   OH228099   4.347   2.526   7.421
 1549TIP3    H128100   4.327   2.546   7.512
 1549TIP3    H228101   4.338   2.610   7.375
 1550TIP3   OH228102   4.331   2.528   6.911
 1550TIP3    H128103   4.238   2.524   6.890
 1550TIP3    H228104   4.375   2.520   6.826
 1551TIP3   OH228105   4.878   2.580   6.819
 1551TIP3    H128106   4.853   2.665   6.782
 1551TIP3    H228107   4.940   2.543   6.757
 1552TIP3   OH228108   4.786   2.593   7.935
 1552TIP3    H128109   4.735   2.516   7.961
 1552TIP3    H228110   4.870   2.583   7.979
 1553TIP3   OH228111   4.982   2.530   7.075
 1553TIP3    H128112   4.945   2.585   7.005
 1553TIP3    H228113   5.014   2.452   7.029
 1554TIP3   OH228114   4.082   2.515   7.609
 1554TIP3    H128115   4.166   2.532   7.653
 1554TIP3    H228116   4.064   2.423   7.626
 1555TIP3   OH228117   3.790   2.252   7.002
 1555TIP3    H128118   3.873   2.253   7.049
 1555TIP3    H228119   3.814   2.258   6.910
 1556TIP3   OH228120   4.936   2.651   7.524
 1556TIP3    H128121   4.972   2.587   7.461
 1556TIP3    H228122   4.864   2.604   7.566
 1557TIP3   OH228123   4.631   2.258   7.023
 1557TIP3    H128124   4.540   2.265   7.052
 1557TIP3    H228125   4.676   2.215   7.095
 1558TIP3   OH228126   4.050   2.451   6.882
 1558TIP3    H128127   3.974   2.493   6.843
 1558TIP3    H228128   4.068   2.376   6.826
 1559TIP3   OH228129   4.455   2.497   6.670
 1559TIP3    H128130   4.537   2.453   6.692
 1559TIP3    H228131   4.441   2.476   6.577
 1560TIP3   OH228132   5.036   2.187   7.313
 1560TIP3    H128133   4.943   2.167   7.318
 1560TIP3    H228134   5.065   2.151   7.229
 1561TIP3   OH228135   5.363   3.770   7.997
 1561TIP3    H128136   5.386   3.805   7.911
 1561TIP3    H228137   5.435   3.799   8.054
 1562TIP3   OH228138   4.116   3.035   7.934
 1562TIP3    H128139   4.183   3.033   8.002
 1562TIP3    H228140   4.037   3.065   7.980
 1563TIP3   OH228141   4.711   2.588   7.202
 1563TIP3    H128142   4.781   2.548   7.151
 1563TIP3    H228143   4.686   2.520   7.265
 1564TIP3   OH228144   4.311   2.124   6.834
 1564TIP3    H128145   4.235   2.070   6.816
 1564TIP3    H228146   4.335   2.162   6.749
 1565TIP3   OH228147   4.609   2.430   7.417
 1565TIP3    H128148   4.522   2.470   7.418
 1565TIP3    H228149   4.651   2.464   7.496
 1566TIP3   OH228150   4.606   2.948   6.625
 1566TIP3    H128151   4.583   2.856   6.641
 1566TIP3    H228152   4.575   2.994   6.703
 1567TIP3   OH228153   5.350   2.960   7.451
 1567TIP3    H128154   5.402   3.021   7.399
 1567TIP3    H228155   5.274   2.941   7.396
 1568TIP3   OH228156   4.773   3.041   7.750
 1568TIP3    H128157   4.805   3.012   7.835
 1568TIP3    H228158   4.749   3.133   7.763
 1569TIP3   OH228159   5.056   2.485   6.631
 1569TIP3    H128160   5.150   2.477   6.652
 1569TIP3    H228161   5.051   2.560   6.572
 1570TIP3   OH228162   4.138   2.952   7.184
 1570TIP3    H128163   4.192   2.949   7.105
 1570TIP3    H228164   4.181   2.891   7.245
 1571TIP3   OH228165   4.797   3.190   6.651
 1571TIP3    H128166   4.797   3.281   6.623
 1571TIP3    H228167   4.801   3.140   6.569
 1572TIP3   OH228168   3.874   2.795   7.753
 1572TIP3    H128169   3.888   2.736   7.827
 1572TIP3    H228170   3.811   2.750   7.697
 1573TIP3   OH228171   4.577   2.772   7.914
 1573TIP3    H128172   4.556   2.781   7.821
 1573TIP3    H228173   4.657   2.720   7.916
 1574TIP3   OH228174   4.993   3.297   7.757
 1574TIP3    H128175   4.902   3.311   7.732
 1574TIP3    H228176   4.998   3.327   7.848
 1575TIP3   OH228177   5.525   2.511   6.583
 1575TIP3    H128178   5.490   2.480   6.500
 1575TIP3    H228179   5.540   2.605   6.570
 1576TIP3   OH228180   5.608   3.132   7.844
 1576TIP3    H128181   5.518   3.127   7.813
 1576TIP3    H228182   5.661   3.105   7.769
 1577TIP3   OH228183   5.401   3.358   6.592
 1577TIP3    H128184   5.343   3.286   6.616
 1577TIP3    H228185   5.406   3.354   6.497
 1578TIP3   OH228186   5.137   2.890   7.280
 1578TIP3    H128187   5.042   2.880   7.272
 1578TIP3    H228188   5.173   2.815   7.232
 1579TIP3   OH228189   4.426   3.326   6.921
 1579TIP3    H128190   4.456   3.395   6.861
 1579TIP3    H228191   4.361   3.369   6.976
 1580TIP3   OH228192   4.480   3.064   6.840
 1580TIP3    H128193   4.470   3.156   6.865
 1580TIP3    H228194   4.421   3.017   6.899
 1581TIP3   OH228195   4.601   3.490   7.540
 1581TIP3    H128196   4.659   3.560   7.513
 1581TIP3    H228197   4.654   3.433   7.595
 1582TIP3   OH228198   4.403   3.603   6.807
 1582TIP3    H128199   4.308   3.608   6.819
 1582TIP3    H228200   4.437   3.682   6.850
 1583TIP3   OH228201   4.882   3.095   7.500
 1583TIP3    H128202   4.850   3.069   7.587
 1583TIP3    H228203   4.934   3.020   7.471
 1584TIP3   OH228204   5.212   3.510   7.719
 1584TIP3    H128205   5.126   3.470   7.707
 1584TIP3    H228206   5.212   3.586   7.660
 1585TIP3   OH228207   4.007   2.233   7.653
 1585TIP3    H128208   3.936   2.205   7.596
 1585TIP3    H228209   4.015   2.164   7.719
 1586TIP3   OH228210   5.293   3.096   6.700
 1586TIP3    H128211   5.233   3.022   6.705
 1586TIP3    H228212   5.372   3.061   6.658
 1587TIP3   OH228213   4.028   3.452   7.572
 1587TIP3    H128214   4.081   3.393   7.518
 1587TIP3    H228215   4.020   3.407   7.656
 1588TIP3   OH228216   4.861   2.260   7.602
 1588TIP3    H128217   4.955   2.271   7.613
 1588TIP3    H228218   4.847   2.165   7.607
 1589TIP3   OH228219   4.966   2.225   6.711
 1589TIP3    H128220   4.981   2.307   6.664
 1589TIP3    H228221   5.008   2.238   6.796
 1590TIP3   OH228222   4.755   3.455   6.570
 1590TIP3    H128223   4.663   3.481   6.569
 1590TIP3    H228224   4.777   3.442   6.477
 1591TIP3   OH228225   4.686   2.382   6.779
 1591TIP3    H128226   4.751   2.451   6.794
 1591TIP3    H228227   4.666   2.348   6.866
 1592TIP3   OH228228   4.745   2.500   7.656
 1592TIP3    H128229   4.762   2.521   7.748
 1592TIP3    H228230   4.782   2.412   7.645
 1593TIP3   OH228231   4.757   2.075   6.846
 1593TIP3    H128232   4.709   2.141   6.895
 1593TIP3    H228233   4.819   2.124   6.793
 1594TIP3   OH228234   4.488   3.535   6.557
 1594TIP3    H128235   4.478   3.617   6.508
 1594TIP3    H228236   4.460   3.557   6.645
 1595TIP3   OH228237   4.340   2.213   6.575
 1595TIP3    H128238   4.270   2.268   6.538
 1595TIP3    H228239   4.412   2.223   6.514
 1596TIP3   OH228240   5.334   2.267   7.764
 1596TIP3    H128241   5.244   2.287   7.740
 1596TIP3    H228242   5.379   2.249   7.681
 1597TIP3   OH228243   5.227   2.651   7.157
 1597TIP3    H128244   5.142   2.611   7.137
 1597TIP3    H228245   5.272   2.586   7.211
 1598TIP3   OH228246   5.334   3.581   7.312
 1598TIP3    H128247   5.318   3.647   7.244
 1598TIP3    H228248   5.429   3.584   7.326
 1599TIP3   OH228249   4.055   1.999   7.218
 1599TIP3    H128250   4.037   1.998   7.124
 1599TIP3    H228251   4.032   1.911   7.248
 1600TIP3   OH228252   3.969   3.354   6.768
 1600TIP3    H128253   3.891   3.339   6.822
 1600TIP3    H228254   3.949   3.434   6.718
 1601TIP3   OH228255   4.386   3.503   8.114
 1601TIP3    H128256   4.457   3.440   8.127
 1601TIP3    H228257   4.345   3.475   8.032
 1602TIP3   OH228258   4.779   3.397   6.304
 1602TIP3    H128259   4.713   3.377   6.237
 1602TIP3    H228260   4.862   3.368   6.266
 1603TIP3   OH228261   4.991   3.371   8.023
 1603TIP3    H128262   4.984   3.288   8.068
 1603TIP3    H228263   5.072   3.410   8.056
 1604TIP3   OH228264   3.864   3.066   8.060
 1604TIP3    H128265   3.869   2.973   8.079
 1604TIP3    H228266   3.805   3.072   7.984
 1605TIP3   OH228267   4.525   3.037   8.000
 1605TIP3    H128268   4.514   3.085   7.918
 1605TIP3    H228269   4.553   2.949   7.972
 1606TIP3   OH228270   5.120   3.047   7.771
 1606TIP3    H128271   5.209   3.070   7.743
 1606TIP3    H228272   5.069   3.127   7.758
 1607TIP3   OH228273   3.986   2.670   7.993
 1607TIP3    H128274   4.073   2.644   7.960
 1607TIP3    H228275   4.004   2.740   8.056
 1608TIP3   OH228276   4.335   2.634   7.679
 1608TIP3    H128277   4.274   2.701   7.710
 1608TIP3    H228278   4.417   2.680   7.663
 1609TIP3   OH228279   4.486   2.708   6.369
 1609TIP3    H128280   4.491   2.614   6.348
 1609TIP3    H228281   4.577   2.734   6.380
 1610TIP3   OH228282   4.893   2.906   8.046
 1610TIP3    H128283   4.973   2.864   8.014
 1610TIP3    H228284   4.853   2.841   8.104
 1611TIP3   OH228285   4.429   2.403   7.804
 1611TIP3    H128286   4.451   2.339   7.736
 1611TIP3    H228287   4.410   2.483   7.756
 1612TIP3   OH228288   4.482   2.237   7.587
 1612TIP3    H128289   4.542   2.274   7.523
 1612TIP3    H228290   4.398   2.233   7.542
 1613TIP3   OH228291   4.553   2.794   7.637
 1613TIP3    H128292   4.647   2.804   7.623
 1613TIP3    H228293   4.513   2.860   7.579
 1614TIP3   OH228294   5.001   2.554   8.116
 1614TIP3    H128295   5.012   2.472   8.165
 1614TIP3    H228296   5.089   2.576   8.087
 1615TIP3   OH228297   5.161   2.847   7.947
 1615TIP3    H128298   5.136   2.922   7.893
 1615TIP3    H228299   5.255   2.836   7.932
 1616TIP3   OH228300   4.261   2.451   8.019
 1616TIP3    H128301   4.187   2.393   8.000
 1616TIP3    H228302   4.318   2.442   7.943
 1617TIP3   OH228303   4.524   1.970   7.657
 1617TIP3    H128304   4.511   2.061   7.631
 1617TIP3    H228305   4.460   1.921   7.606
 1618TIP3   OH228306   4.638   2.368   7.981
 1618TIP3    H128307   4.589   2.337   8.057
 1618TIP3    H228308   4.573   2.376   7.912
 1619TIP3   OH228309   4.906   2.318   7.915
 1619TIP3    H128310   4.812   2.325   7.929
 1619TIP3    H228311   4.935   2.248   7.974
 1620TIP3   OH228312   4.962   2.136   8.115
 1620TIP3    H128313   5.011   2.054   8.106
 1620TIP3    H228314   5.018   2.191   8.171
 1621TIP3   OH228315   4.056   2.265   7.995
 1621TIP3    H128316   4.053   2.192   7.934
 1621TIP3    H228317   4.068   2.225   8.081
 1622TIP3   OH228318   4.500   1.896   7.922
 1622TIP3    H128319   4.561   1.823   7.919
 1622TIP3    H228320   4.502   1.932   7.834
 1623TIP3   OH228321   4.515   2.016   8.172
 1623TIP3    H128322   4.519   1.971   8.088
 1623TIP3    H228323   4.498   2.107   8.149
 1624TIP3   OH228324   3.757   3.704   6.892
 1624TIP3    H128325   3.688   3.685   6.829
 1624TIP3    H228326   3.833   3.655   6.860
 1625TIP3   OH228327   5.601   3.601   7.385
 1625TIP3    H128328   5.593   3.601   7.480
 1625TIP3    H228329   5.645   3.683   7.364
 1626TIP3   OH228330   5.556   3.557   7.657
 1626TIP3    H128331   5.504   3.483   7.627
 1626TIP3    H228332   5.598   3.527   7.737
 1627TIP3   OH228333   5.426   3.159   8.166
 1627TIP3    H128334   5.343   3.174   8.211
 1627TIP3    H228335   5.474   3.241   8.175
 1628TIP3   OH228336   5.533   2.954   6.635
 1628TIP3    H128337   5.605   3.012   6.609
 1628TIP3    H228338   5.573   2.892   6.696
 1629TIP3   OH228339   5.595   2.789   6.876
 1629TIP3    H128340   5.513   2.741   6.883
 1629TIP3    H228341   5.574   2.878   6.905
 1630TIP3   OH228342   5.599   3.088   7.383
 1630TIP3    H128343   5.648   3.028   7.328
 1630TIP3    H228344   5.620   3.175   7.349
 1631TIP3   OH228345   5.389   3.348   7.582
 1631TIP3    H128346   5.320   3.397   7.626
 1631TIP3    H228347   5.356   3.333   7.494
 1632TIP3   OH228348   5.446   2.445   6.328
 1632TIP3    H128349   5.363   2.443   6.280
 1632TIP3    H228350   5.510   2.410   6.266
 1633TIP3   OH228351   5.356   2.662   6.909
 1633TIP3    H128352   5.333   2.577   6.871
 1633TIP3    H228353   5.315   2.662   6.995
 1634TIP3   OH228354   3.829   2.887   7.362
 1634TIP3    H128355   3.833   2.879   7.267
 1634TIP3    H228356   3.910   2.847   7.393
 1635TIP3   OH228357   5.433   2.844   7.888
 1635TIP3    H128358   5.491   2.770   7.871
 1635TIP3    H228359   5.455   2.907   7.820
 1636TIP3   OH228360   5.583   2.611   7.868
 1636TIP3    H128361   5.496   2.573   7.883
 1636TIP3    H228362   5.643   2.536   7.872
 1637TIP3   OH228363   5.316   2.424   6.755
 1637TIP3    H128364   5.325   2.329   6.753
 1637TIP3    H228365   5.385   2.457   6.697
 1638TIP3   OH228366   5.376   2.467   7.307
 1638TIP3    H128367   5.470   2.480   7.294
 1638TIP3    H228368   5.362   2.482   7.400
 1639TIP3   OH228369   5.392   2.566   7.573
 1639TIP3    H128370   5.311   2.602   7.610
 1639TIP3    H228371   5.442   2.643   7.546
 1640TIP3   OH228372   3.811   2.382   7.983
 1640TIP3    H128373   3.902   2.351   7.983
 1640TIP3    H228374   3.759   2.304   7.965
 1641TIP3   OH228375   5.612   1.972   8.081
 1641TIP3    H128376   5.673   1.910   8.042
 1641TIP3    H228377   5.607   2.044   8.017
 1642TIP3   OH228378   5.339   2.153   6.759
 1642TIP3    H128379   5.383   2.116   6.835
 1642TIP3    H228380   5.277   2.085   6.732
 1643TIP3   OH228381   3.934   2.234   7.291
 1643TIP3    H128382   3.970   2.148   7.271
 1643TIP3    H228383   4.007   2.294   7.279
 1644TIP3   OH228384   3.781   2.536   7.316
 1644TIP3    H128385   3.829   2.500   7.241
 1644TIP3    H228386   3.844   2.592   7.361
 1645TIP3   OH228387   5.519   2.203   7.955
 1645TIP3    H128388   5.466   2.218   8.033
 1645TIP3    H228389   5.456   2.206   7.883
 1646TIP3   OH228390   3.823   2.229   6.717
 1646TIP3    H128391   3.732   2.203   6.703
 1646TIP3    H228392   3.855   2.252   6.630
 1647TIP3   OH228393   5.286   3.647   6.911
 1647TIP3    H128394   5.358   3.641   6.848
 1647TIP3    H228395   5.320   3.702   6.981
 1648TIP3   OH228396   3.796   2.020   7.550
 1648TIP3    H128397   3.723   1.996   7.607
 1648TIP3    H228398   3.756   2.061   7.474
 1649TIP3   OH228399   4.024   3.345   7.964
 1649TIP3    H128400   3.931   3.364   7.951
 1649TIP3    H228401   4.031   3.321   8.056
 1650TIP3   OH228402   4.338   3.472   7.619
 1650TIP3    H128403   4.306   3.561   7.600
 1650TIP3    H228404   4.432   3.476   7.599
 1651TIP3   OH228405   4.710   3.581   7.889
 1651TIP3    H128406   4.720   3.558   7.981
 1651TIP3    H228407   4.786   3.635   7.869
 1652TIP3   OH228408   4.941   3.730   7.860
 1652TIP3    H128409   5.010   3.685   7.811
 1652TIP3    H228410   4.983   3.758   7.941
 1653TIP3   OH228411   5.441   1.933   7.721
 1653TIP3    H128412   5.370   1.941   7.658
 1653TIP3    H228413   5.477   1.846   7.707
 1654TIP3   OH228414   4.325   3.735   7.506
 1654TIP3    H128415   4.258   3.802   7.496
 1654TIP3    H228416   4.325   3.687   7.423
 1655TIP3   OH228417   4.765   3.685   7.439
 1655TIP3    H128418   4.802   3.693   7.351
 1655TIP3    H228419   4.779   3.771   7.479
 1656TIP3   OH228420   4.976   3.566   7.570
 1656TIP3    H128421   4.897   3.604   7.530
 1656TIP3    H228422   5.046   3.624   7.541
 1657TIP3   OH228423   5.213   3.709   7.524
 1657TIP3    H128424   5.225   3.802   7.505
 1657TIP3    H228425   5.250   3.663   7.449
 1658TIP3   OH228426   4.264   3.460   7.100
 1658TIP3    H128427   4.229   3.387   7.150
 1658TIP3    H228428   4.325   3.503   7.159
 1659TIP3   OH228429   4.468   3.515   7.294
 1659TIP3    H128430   4.480   3.427   7.259
 1659TIP3    H228431   4.511   3.513   7.379
 1660TIP3   OH228432   4.779   2.086   7.189
 1660TIP3    H128433   4.714   2.019   7.211
 1660TIP3    H228434   4.842   2.040   7.133
 1661TIP3   OH228435   5.313   1.921   7.143
 1661TIP3    H128436   5.371   1.983   7.100
 1661TIP3    H228437   5.225   1.956   7.128
 1662TIP3   OH228438   5.485   2.067   6.983
 1662TIP3    H128439   5.538   1.993   6.954
 1662TIP3    H228440   5.548   2.138   6.997
 1663TIP3   OH228441   3.990   1.979   6.953
 1663TIP3    H128442   3.904   1.958   6.916
 1663TIP3    H228443   4.041   1.899   6.943
 1664TIP3   OH228444   3.939   1.955   6.541
 1664TIP3    H128445   3.958   2.007   6.463
 1664TIP3    H228446   3.949   2.017   6.613
 1665TIP3   OH228447   4.521   1.924   6.967
 1665TIP3    H128448   4.600   1.944   6.917
 1665TIP3    H228449   4.456   1.986   6.933
 1666TIP3   OH228450   5.043   1.979   7.075
 1666TIP3    H128451   5.050   1.984   6.979
 1666TIP3    H228452   5.009   1.891   7.091
 1667TIP3   OH228453   5.150   1.968   6.679
 1667TIP3    H128454   5.071   2.015   6.652
 1667TIP3    H228455   5.121   1.877   6.686
 1668TIP3   OH228456   3.880   3.584   6.662
 1668TIP3    H128457   3.807   3.555   6.607
 1668TIP3    H228458   3.904   3.669   6.628
 1669TIP3   OH228459   5.463   3.610   6.684
 1669TIP3    H128460   5.435   3.519   6.669
 1669TIP3    H228461   5.425   3.659   6.611
 1670TIP3   OH228462   4.029   2.020   7.855
 1670TIP3    H128463   3.967   1.952   7.884
 1670TIP3    H228464   4.110   1.998   7.901
 1671TIP3   OH228465   4.230   1.945   8.027
 1671TIP3    H128466   4.319   1.924   8.001
 1671TIP3    H228467   4.198   1.867   8.071
 1672TIP3   OH228468   5.100   1.895   8.090
 1672TIP3    H128469   5.101   1.844   8.171
 1672TIP3    H228470   5.191   1.894   8.059
 1673TIP3   OH228471   5.390   3.504   7.931
 1673TIP3    H128472   5.328   3.497   7.859
 1673TIP3    H228473   5.382   3.595   7.961
 1674TIP3   OH228474   6.830   2.907   6.935
 1674TIP3    H128475   6.813   3.000   6.922
 1674TIP3    H228476   6.786   2.865   6.861
 1675TIP3   OH228477   6.731   2.813   7.291
 1675TIP3    H128478   6.761   2.767   7.370
 1675TIP3    H228479   6.691   2.745   7.237
 1676TIP3   OH228480   5.967   2.801   7.482
 1676TIP3    H128481   5.970   2.705   7.483
 1676TIP3    H228482   5.965   2.826   7.574
 1677TIP3   OH228483   7.158   3.099   7.147
 1677TIP3    H128484   7.099   3.032   7.182
 1677TIP3    H228485   7.165   3.163   7.217
 1678TIP3   OH228486   6.099   3.188   7.263
 1678TIP3    H128487   6.064   3.147   7.184
 1678TIP3    H228488   6.188   3.215   7.240
 1679TIP3   OH228489   5.702   2.528   6.810
 1679TIP3    H128490   5.673   2.616   6.831
 1679TIP3    H228491   5.644   2.500   6.739
 1680TIP3   OH228492   5.825   2.793   7.055
 1680TIP3    H128493   5.846   2.702   7.078
 1680TIP3    H228494   5.766   2.785   6.980
 1681TIP3   OH228495   6.820   3.608   7.112
 1681TIP3    H128496   6.891   3.544   7.107
 1681TIP3    H228497   6.784   3.597   7.200
 1682TIP3   OH228498   6.612   3.062   7.362
 1682TIP3    H128499   6.620   3.001   7.289
 1682TIP3    H228500   6.691   3.046   7.414
 1683TIP3   OH228501   7.408   2.223   7.371
 1683TIP3    H128502   7.437   2.288   7.435
 1683TIP3    H228503   7.451   2.248   7.290
 1684TIP3   OH228504   6.902   2.480   7.339
 1684TIP3    H128505   6.926   2.388   7.354
 1684TIP3    H228506   6.888   2.485   7.244
 1685TIP3   OH228507   6.226   2.280   7.056
 1685TIP3    H128508   6.242   2.362   7.009
 1685TIP3    H228509   6.176   2.226   6.995
 1686TIP3   OH228510   7.015   2.322   6.945
 1686TIP3    H128511   7.053   2.287   7.025
 1686TIP3    H228512   7.070   2.287   6.875
 1687TIP3   OH228513   5.884   2.542   7.161
 1687TIP3    H128514   5.947   2.494   7.215
 1687TIP3    H228515   5.899   2.510   7.072
 1688TIP3   OH228516   6.364   2.684   7.098
 1688TIP3    H128517   6.449   2.645   7.118
 1688TIP3    H228518   6.321   2.621   7.041
 1689TIP3   OH228519   7.439   2.340   7.631
 1689TIP3    H128520   7.387   2.420   7.635
 1689TIP3    H228521   7.503   2.349   7.702
 1690TIP3   OH228522   6.111   2.210   7.485
 1690TIP3    H128523   6.080   2.261   7.410
 1690TIP3    H228524   6.038   2.212   7.547
 1691TIP3   OH228525   6.806   3.190   6.849
 1691TIP3    H128526   6.740   3.159   6.788
 1691TIP3    H228527   6.765   3.264   6.893
 1692TIP3   OH228528   6.352   3.009   7.432
 1692TIP3    H128529   6.309   3.077   7.484
 1692TIP3    H228530   6.438   3.046   7.410
 1693TIP3   OH228531   7.170   2.232   7.156
 1693TIP3    H128532   7.149   2.142   7.182
 1693TIP3    H228533   7.251   2.225   7.106
 1694TIP3   OH228534   6.073   2.369   7.265
 1694TIP3    H128535   6.138   2.424   7.308
 1694TIP3    H228536   6.120   2.328   7.192
 1695TIP3   OH228537   6.183   3.182   7.561
 1695TIP3    H128538   6.192   3.276   7.547
 1695TIP3    H228539   6.100   3.173   7.608
 1696TIP3   OH228540   5.759   3.100   6.568
 1696TIP3    H128541   5.754   3.132   6.478
 1696TIP3    H228542   5.808   3.168   6.615
 1697TIP3   OH228543   7.088   3.352   7.316
 1697TIP3    H128544   7.053   3.356   7.227
 1697TIP3    H228545   7.141   3.432   7.324
 1698TIP3   OH228546   7.168   2.108   7.484
 1698TIP3    H128547   7.090   2.145   7.442
 1698TIP3    H228548   7.240   2.139   7.430
 1699TIP3   OH228549   6.461   1.900   7.218
 1699TIP3    H128550   6.433   1.808   7.226
 1699TIP3    H228551   6.384   1.950   7.245
 1700TIP3   OH228552   7.022   3.418   7.053
 1700TIP3    H128553   7.041   3.341   6.999
 1700TIP3    H228554   7.062   3.491   7.006
 1701TIP3   OH228555   7.080   3.197   6.859
 1701TIP3    H128556   7.102   3.159   6.774
 1701TIP3    H228557   6.987   3.174   6.872
 1702TIP3   OH228558   7.234   3.108   7.693
 1702TIP3    H128559   7.235   3.050   7.617
 1702TIP3    H228560   7.250   3.195   7.656
 1703TIP3   OH228561   6.742   2.826   6.687
 1703TIP3    H128562   6.661   2.861   6.650
 1703TIP3    H228563   6.800   2.814   6.612
 1704TIP3   OH228564   6.716   2.677   6.344
 1704TIP3    H128565   6.787   2.715   6.395
 1704TIP3    H228566   6.754   2.599   6.304
 1705TIP3   OH228567   7.408   2.766   7.509
 1705TIP3    H128568   7.334   2.823   7.489
 1705TIP3    H228569   7.461   2.766   7.429
 1706TIP3   OH228570   7.074   2.850   6.812
 1706TIP3    H128571   6.989   2.840   6.855
 1706TIP3    H228572   7.119   2.767   6.829
 1707TIP3   OH228573   7.012   2.647   7.708
 1707TIP3    H128574   7.005   2.727   7.759
 1707TIP3    H228575   6.953   2.660   7.634
 1708TIP3   OH228576   6.246   2.900   6.966
 1708TIP3    H128577   6.205   2.873   6.884
 1708TIP3    H228578   6.291   2.822   6.997
 1709TIP3   OH228579   6.348   3.271   7.180
 1709TIP3    H128580   6.326   3.285   7.088
 1709TIP3    H228581   6.425   3.214   7.177
 1710TIP3   OH228582   6.237   2.795   7.310
 1710TIP3    H128583   6.272   2.755   7.231
 1710TIP3    H228584   6.307   2.852   7.342
 1711TIP3   OH228585   6.846   3.327   7.472
 1711TIP3    H128586   6.848   3.422   7.484
 1711TIP3    H228587   6.922   3.308   7.417
 1712TIP3   OH228588   6.341   3.212   7.790
 1712TIP3    H128589   6.284   3.273   7.838
 1712TIP3    H228590   6.290   3.187   7.713
 1713TIP3   OH228591   6.936   2.764   6.492
 1713TIP3    H128592   6.962   2.688   6.544
 1713TIP3    H228593   6.992   2.761   6.415
 1714TIP3   OH228594   6.030   2.843   7.752
 1714TIP3    H128595   6.037   2.923   7.803
 1714TIP3    H228596   5.974   2.786   7.804
 1715TIP3   OH228597   6.695   3.435   6.917
 1715TIP3    H128598   6.738   3.498   6.976
 1715TIP3    H228599   6.607   3.469   6.906
 1716TIP3   OH228600   6.154   3.395   7.874
 1716TIP3    H128601   6.136   3.426   7.786
 1716TIP3    H228602   6.068   3.379   7.913
 1717TIP3   OH228603   6.128   2.834   6.732
 1717TIP3    H128604   6.191   2.847   6.662
 1717TIP3    H228605   6.056   2.786   6.691
 1718TIP3   OH228606   7.427   3.409   6.390
 1718TIP3    H128607   7.458   3.499   6.396
 1718TIP3    H228608   7.473   3.373   6.314
 1719TIP3   OH228609   5.740   3.040   7.621
 1719TIP3    H128610   5.685   3.047   7.543
 1719TIP3    H228611   5.741   2.946   7.640
 1720TIP3   OH228612   5.698   3.347   7.316
 1720TIP3    H128613   5.774   3.359   7.374
 1720TIP3    H228614   5.643   3.423   7.333
 1721TIP3   OH228615   7.499   3.415   7.880
 1721TIP3    H128616   7.507   3.320   7.872
 1721TIP3    H228617   7.412   3.428   7.918
 1722TIP3   OH228618   6.579   3.340   7.730
 1722TIP3    H128619   6.588   3.416   7.789
 1722TIP3    H228620   6.502   3.294   7.763
 1723TIP3   OH228621   6.705   3.720   6.694
 1723TIP3    H128622   6.735   3.766   6.616
 1723TIP3    H228623   6.683   3.790   6.756
 1724TIP3   OH228624   6.028   3.580   6.925
 1724TIP3    H128625   6.042   3.544   7.013
 1724TIP3    H228626   5.965   3.520   6.884
 1725TIP3   OH228627   6.921   3.529   6.725
 1725TIP3    H128628   6.849   3.589   6.741
 1725TIP3    H228629   6.991   3.559   6.782
 1726TIP3   OH228630   7.191   2.517   7.934
 1726TIP3    H128631   7.155   2.558   7.855
 1726TIP3    H228632   7.203   2.426   7.910
 1727TIP3   OH228633   5.950   3.195   7.697
 1727TIP3    H128634   5.966   3.172   7.789
 1727TIP3    H228635   5.873   3.144   7.672
 1728TIP3   OH228636   6.219   2.019   7.307
 1728TIP3    H128637   6.143   2.010   7.249
 1728TIP3    H228638   6.194   2.089   7.368
 1729TIP3   OH228639   6.686   2.000   7.660
 1729TIP3    H128640   6.736   1.943   7.719
 1729TIP3    H228641   6.595   1.976   7.675
 1730TIP3   OH228642   6.974   2.370   7.737
 1730TIP3    H128643   6.915   2.361   7.811
 1730TIP3    H228644   6.983   2.464   7.724
 1731TIP3   OH228645   6.225   2.541   7.421
 1731TIP3    H128646   6.154   2.538   7.485
 1731TIP3    H228647   6.223   2.630   7.387
 1732TIP3   OH228648   6.209   2.530   6.935
 1732TIP3    H128649   6.115   2.517   6.927
 1732TIP3    H228650   6.243   2.514   6.847
 1733TIP3   OH228651   6.784   2.584   6.814
 1733TIP3    H128652   6.756   2.663   6.769
 1733TIP3    H228653   6.850   2.545   6.756
 1734TIP3   OH228654   6.657   2.599   7.903
 1734TIP3    H128655   6.617   2.522   7.943
 1734TIP3    H228656   6.742   2.607   7.947
 1735TIP3   OH228657   6.869   2.517   7.066
 1735TIP3    H128658   6.829   2.560   6.991
 1735TIP3    H228659   6.915   2.442   7.029
 1736TIP3   OH228660   5.999   2.527   7.580
 1736TIP3    H128661   6.024   2.551   7.669
 1736TIP3    H228662   5.960   2.440   7.588
 1737TIP3   OH228663   5.668   2.261   7.028
 1737TIP3    H128664   5.722   2.251   7.106
 1737TIP3    H228665   5.706   2.336   6.982
 1738TIP3   OH228666   6.815   2.666   7.511
 1738TIP3    H128667   6.855   2.604   7.450
 1738TIP3    H228668   6.748   2.615   7.556
 1739TIP3   OH228669   6.521   2.258   7.026
 1739TIP3    H128670   6.431   2.244   7.056
 1739TIP3    H228671   6.575   2.212   7.089
 1740TIP3   OH228672   5.944   2.447   6.915
 1740TIP3    H128673   5.869   2.467   6.859
 1740TIP3    H228674   5.968   2.357   6.892
 1741TIP3   OH228675   6.287   2.452   6.687
 1741TIP3    H128676   6.376   2.436   6.717
 1741TIP3    H228677   6.297   2.476   6.594
 1742TIP3   OH228678   6.918   2.202   7.371
 1742TIP3    H128679   6.842   2.207   7.428
 1742TIP3    H228680   6.888   2.153   7.294
 1743TIP3   OH228681   6.257   2.567   6.436
 1743TIP3    H128682   6.162   2.561   6.421
 1743TIP3    H228683   6.267   2.642   6.494
 1744TIP3   OH228684   7.233   3.753   8.006
 1744TIP3    H128685   7.260   3.794   7.923
 1744TIP3    H228686   7.305   3.771   8.066
 1745TIP3   OH228687   6.010   3.049   7.938
 1745TIP3    H128688   6.074   3.050   8.009
 1745TIP3    H228689   5.925   3.043   7.983
 1746TIP3   OH228690   6.604   2.576   7.200
 1746TIP3    H128691   6.671   2.530   7.149
 1746TIP3    H228692   6.570   2.510   7.261
 1747TIP3   OH228693   6.029   2.190   6.871
 1747TIP3    H128694   5.988   2.105   6.888
 1747TIP3    H228695   6.074   2.179   6.787
 1748TIP3   OH228696   6.480   2.433   7.412
 1748TIP3    H128697   6.392   2.471   7.420
 1748TIP3    H228698   6.526   2.462   7.491
 1749TIP3   OH228699   6.517   2.981   6.636
 1749TIP3    H128700   6.449   2.921   6.606
 1749TIP3    H228701   6.484   3.014   6.720
 1750TIP3   OH228702   7.211   2.962   7.462
 1750TIP3    H128703   7.279   3.006   7.411
 1750TIP3    H228704   7.145   2.936   7.397
 1751TIP3   OH228705   6.891   2.269   6.484
 1751TIP3    H128706   6.865   2.179   6.463
 1751TIP3    H228707   6.935   2.300   6.405
 1752TIP3   OH228708   6.627   3.023   7.750
 1752TIP3    H128709   6.584   2.942   7.726
 1752TIP3    H228710   6.631   3.021   7.846
 1753TIP3   OH228711   6.984   2.521   6.628
 1753TIP3    H128712   7.067   2.490   6.665
 1753TIP3    H228713   6.958   2.452   6.567
 1754TIP3   OH228714   6.034   2.956   7.130
 1754TIP3    H128715   6.105   2.938   7.069
 1754TIP3    H228716   5.959   2.908   7.094
 1755TIP3   OH228717   6.686   3.196   6.599
 1755TIP3    H128718   6.638   3.241   6.529
 1755TIP3    H228719   6.645   3.109   6.604
 1756TIP3   OH228720   5.731   2.776   7.699
 1756TIP3    H128721   5.709   2.722   7.775
 1756TIP3    H228722   5.666   2.753   7.633
 1757TIP3   OH228723   6.448   2.779   7.913
 1757TIP3    H128724   6.381   2.736   7.859
 1757TIP3    H228725   6.527   2.726   7.900
 1758TIP3   OH228726   6.900   3.263   7.769
 1758TIP3    H128727   6.875   3.304   7.851
 1758TIP3    H228728   6.982   3.305   7.745
 1759TIP3   OH228729   7.402   2.577   6.575
 1759TIP3    H128730   7.367   2.567   6.486
 1759TIP3    H228731   7.434   2.667   6.578
 1760TIP3   OH228732   7.470   3.137   7.842
 1760TIP3    H128733   7.378   3.137   7.817
 1760TIP3    H228734   7.516   3.105   7.764
 1761TIP3   OH228735   7.298   3.347   6.626
 1761TIP3    H128736   7.332   3.263   6.657
 1761TIP3    H228737   7.337   3.358   6.539
 1762TIP3   OH228738   7.003   2.900   7.275
 1762TIP3    H128739   6.910   2.885   7.256
 1762TIP3    H228740   7.047   2.822   7.240
 1763TIP3   OH228741   6.260   3.313   6.919
 1763TIP3    H128742   6.276   3.400   6.883
 1763TIP3    H228743   6.173   3.289   6.886
 1764TIP3   OH228744   5.918   2.871   6.498
 1764TIP3    H128745   6.002   2.915   6.486
 1764TIP3    H228746   5.857   2.942   6.517
 1765TIP3   OH228747   6.422   3.091   6.871
 1765TIP3    H128748   6.368   3.170   6.881
 1765TIP3    H228749   6.368   3.020   6.905
 1766TIP3   OH228750   6.475   3.513   7.538
 1766TIP3    H128751   6.536   3.585   7.520
 1766TIP3    H228752   6.518   3.462   7.606
 1767TIP3   OH228753   6.282   3.576   6.820
 1767TIP3    H128754   6.192   3.590   6.849
 1767TIP3    H228755   6.332   3.645   6.863
 1768TIP3   OH228756   6.843   3.014   7.514
 1768TIP3    H128757   6.883   2.976   7.592
 1768TIP3    H228758   6.893   2.977   7.441
 1769TIP3   OH228759   7.003   3.192   6.478
 1769TIP3    H128760   7.066   3.136   6.523
 1769TIP3    H228761   6.994   3.154   6.391
 1770TIP3   OH228762   7.065   3.523   7.705
 1770TIP3    H128763   6.979   3.520   7.661
 1770TIP3    H228764   7.106   3.602   7.669
 1771TIP3   OH228765   7.500   3.676   6.474
 1771TIP3    H128766   7.585   3.713   6.452
 1771TIP3    H228767   7.439   3.749   6.465
 1772TIP3   OH228768   5.910   2.263   7.674
 1772TIP3    H128769   5.834   2.303   7.716
 1772TIP3    H228770   5.918   2.177   7.715
 1773TIP3   OH228771   7.151   3.042   6.644
 1773TIP3    H128772   7.114   2.961   6.681
 1773TIP3    H228773   7.240   3.019   6.620
 1774TIP3   OH228774   5.883   3.445   7.511
 1774TIP3    H128775   5.914   3.372   7.564
 1774TIP3    H228776   5.869   3.516   7.573
 1775TIP3   OH228777   6.461   3.190   6.244
 1775TIP3    H128778   6.425   3.139   6.172
 1775TIP3    H228779   6.385   3.234   6.282
 1776TIP3   OH228780   6.319   3.288   6.518
 1776TIP3    H128781   6.307   3.193   6.521
 1776TIP3    H228782   6.400   3.303   6.568
 1777TIP3   OH228783   6.753   2.261   7.603
 1777TIP3    H128784   6.841   2.273   7.638
 1777TIP3    H228785   6.731   2.171   7.624
 1778TIP3   OH228786   6.801   2.251   6.748
 1778TIP3    H128787   6.834   2.254   6.658
 1778TIP3    H228788   6.878   2.269   6.802
 1779TIP3   OH228789   6.608   3.495   6.561
 1779TIP3    H128790   6.643   3.541   6.638
 1779TIP3    H228791   6.686   3.467   6.513
 1780TIP3   OH228792   6.534   2.441   6.810
 1780TIP3    H128793   6.625   2.472   6.805
 1780TIP3    H228794   6.536   2.374   6.878
 1781TIP3   OH228795   6.630   2.507   7.636
 1781TIP3    H128796   6.637   2.529   7.729
 1781TIP3    H228797   6.668   2.419   7.630
 1782TIP3   OH228798   6.620   2.068   6.837
 1782TIP3    H128799   6.581   2.127   6.901
 1782TIP3    H228800   6.696   2.116   6.804
 1783TIP3   OH228801   6.320   3.591   6.544
 1783TIP3    H128802   6.296   3.503   6.515
 1783TIP3    H228803   6.302   3.590   6.638
 1784TIP3   OH228804   6.170   2.203   6.638
 1784TIP3    H128805   6.208   2.289   6.656
 1784TIP3    H228806   6.245   2.146   6.621
 1785TIP3   OH228807   7.222   2.271   7.807
 1785TIP3    H128808   7.133   2.278   7.774
 1785TIP3    H228809   7.276   2.264   7.728
 1786TIP3   OH228810   7.095   2.664   7.169
 1786TIP3    H128811   7.019   2.613   7.141
 1786TIP3    H228812   7.141   2.608   7.231
 1787TIP3   OH228813   6.056   3.183   6.437
 1787TIP3    H128814   6.122   3.252   6.446
 1787TIP3    H228815   6.106   3.101   6.447
 1788TIP3   OH228816   7.231   3.586   7.328
 1788TIP3    H128817   7.218   3.646   7.255
 1788TIP3    H228818   7.326   3.579   7.337
 1789TIP3   OH228819   5.958   1.993   7.204
 1789TIP3    H128820   5.944   1.983   7.110
 1789TIP3    H228821   5.930   1.909   7.241
 1790TIP3   OH228822   5.855   3.404   6.807
 1790TIP3    H128823   5.781   3.374   6.861
 1790TIP3    H228824   5.814   3.436   6.726
 1791TIP3   OH228825   5.778   3.676   7.968
 1791TIP3    H128826   5.836   3.656   8.042
 1791TIP3    H228827   5.741   3.592   7.944
 1792TIP3   OH228828   6.303   3.532   8.065
 1792TIP3    H128829   6.347   3.460   8.110
 1792TIP3    H228830   6.243   3.488   8.004
 1793TIP3   OH228831   6.871   3.380   8.012
 1793TIP3    H128832   6.854   3.296   8.055
 1793TIP3    H228833   6.944   3.418   8.059
 1794TIP3   OH228834   5.757   3.039   8.060
 1794TIP3    H128835   5.721   2.954   8.085
 1794TIP3    H228836   5.697   3.071   7.992
 1795TIP3   OH228837   6.420   3.045   7.995
 1795TIP3    H128838   6.394   3.090   7.915
 1795TIP3    H228839   6.430   2.954   7.970
 1796TIP3   OH228840   6.732   3.198   6.272
 1796TIP3    H128841   6.637   3.195   6.264
 1796TIP3    H228842   6.763   3.116   6.234
 1797TIP3   OH228843   6.988   3.000   7.756
 1797TIP3    H128844   7.078   3.028   7.736
 1797TIP3    H228845   6.943   3.081   7.781
 1798TIP3   OH228846   5.937   2.694   7.973
 1798TIP3    H128847   6.000   2.627   8.001
 1798TIP3    H228848   5.910   2.736   8.054
 1799TIP3   OH228849   6.252   2.670   7.727
 1799TIP3    H128850   6.180   2.733   7.734
 1799TIP3    H228851   6.316   2.713   7.671
 1800TIP3   OH228852   6.777   2.897   8.043
 1800TIP3    H128853   6.863   2.859   8.023
 1800TIP3    H228854   6.738   2.835   8.105
 1801TIP3   OH228855   6.312   2.412   7.817
 1801TIP3    H128856   6.329   2.350   7.747
 1801TIP3    H228857   6.296   2.496   7.773
 1802TIP3   OH228858   6.358   2.244   7.597
 1802TIP3    H128859   6.414   2.274   7.526
 1802TIP3    H228860   6.272   2.231   7.556
 1803TIP3   OH228861   6.457   2.800   7.594
 1803TIP3    H128862   6.524   2.748   7.550
 1803TIP3    H228863   6.434   2.868   7.531
 1804TIP3   OH228864   6.892   2.560   8.066
 1804TIP3    H128865   6.869   2.472   8.038
 1804TIP3    H228866   6.987   2.560   8.072
 1805TIP3   OH228867   7.050   2.851   7.975
 1805TIP3    H128868   7.019   2.907   7.903
 1805TIP3    H228869   7.144   2.840   7.958
 1806TIP3   OH228870   6.142   2.465   8.034
 1806TIP3    H128871   6.065   2.409   8.021
 1806TIP3    H228872   6.196   2.451   7.957
 1807TIP3   OH228873   6.401   1.975   7.666
 1807TIP3    H128874   6.389   2.066   7.641
 1807TIP3    H228875   6.336   1.927   7.615
 1808TIP3   OH228876   6.526   2.374   7.993
 1808TIP3    H128877   6.487   2.348   8.077
 1808TIP3    H228878   6.451   2.379   7.933
 1809TIP3   OH228879   6.802   2.332   7.946
 1809TIP3    H128880   6.709   2.320   7.965
 1809TIP3    H228881   6.845   2.258   7.990
 1810TIP3   OH228882   6.945   2.150   8.087
 1810TIP3    H128883   6.946   2.055   8.094
 1810TIP3    H228884   6.937   2.180   8.178
 1811TIP3   OH228885   5.934   2.282   7.994
 1811TIP3    H128886   5.934   2.199   7.946
 1811TIP3    H228887   5.937   2.256   8.086
 1812TIP3   OH228888   6.409   1.857   7.911
 1812TIP3    H128889   6.460   1.781   7.882
 1812TIP3    H228890   6.392   1.907   7.831
 1813TIP3   OH228891   6.447   2.042   8.122
 1813TIP3    H128892   6.444   2.036   8.027
 1813TIP3    H228893   6.399   2.122   8.143
 1814TIP3   OH228894   5.802   3.181   6.311
 1814TIP3    H128895   5.895   3.187   6.333
 1814TIP3    H228896   5.791   3.241   6.237
 1815TIP3   OH228897   5.651   3.724   6.870
 1815TIP3    H128898   5.592   3.685   6.806
 1815TIP3    H228899   5.667   3.654   6.934
 1816TIP3   OH228900   5.714   3.542   7.071
 1816TIP3    H128901   5.671   3.467   7.112
 1816TIP3    H228902   5.767   3.580   7.141
 1817TIP3   OH228903   7.502   3.592   7.384
 1817TIP3    H128904   7.502   3.636   7.468
 1817TIP3    H228905   7.557   3.646   7.328
 1818TIP3   OH228906   7.407   3.575   7.669
 1818TIP3    H128907   7.377   3.500   7.617
 1818TIP3    H228908   7.459   3.535   7.739
 1819TIP3   OH228909   7.288   3.154   8.166
 1819TIP3    H128910   7.207   3.169   8.214
 1819TIP3    H228911   7.336   3.237   8.172
 1820TIP3   OH228912   7.412   3.088   6.759
 1820TIP3    H128913   7.490   3.140   6.738
 1820TIP3    H228914   7.439   2.998   6.746
 1821TIP3   OH228915   7.375   2.868   6.949
 1821TIP3    H128916   7.328   2.788   6.929
 1821TIP3    H228917   7.461   2.838   6.981
 1822TIP3   OH228918   7.432   3.081   7.357
 1822TIP3    H128919   7.484   3.011   7.318
 1822TIP3    H228920   7.475   3.162   7.328
 1823TIP3   OH228921   7.245   3.356   7.572
 1823TIP3    H128922   7.181   3.414   7.613
 1823TIP3    H228923   7.214   3.343   7.483
 1824TIP3   OH228924   7.503   2.849   6.545
 1824TIP3    H128925   7.531   2.789   6.476
 1824TIP3    H228926   7.560   2.926   6.534
 1825TIP3   OH228927   7.323   2.587   6.305
 1825TIP3    H128928   7.403   2.576   6.253
 1825TIP3    H228929   7.271   2.510   6.284
 1826TIP3   OH228930   7.224   2.645   6.912
 1826TIP3    H128931   7.225   2.562   6.863
 1826TIP3    H228932   7.189   2.622   6.998
 1827TIP3   OH228933   5.750   2.862   7.311
 1827TIP3    H128934   5.769   2.839   7.220
 1827TIP3    H228935   5.826   2.831   7.360
 1828TIP3   OH228936   7.323   2.854   7.917
 1828TIP3    H128937   7.372   2.774   7.903
 1828TIP3    H228938   7.354   2.914   7.848
 1829TIP3   OH228939   7.452   2.611   7.918
 1829TIP3    H128940   7.362   2.579   7.913
 1829TIP3    H228941   7.504   2.533   7.938
 1830TIP3   OH228942   7.228   2.429   6.741
 1830TIP3    H128943   7.233   2.333   6.745
 1830TIP3    H228944   7.292   2.454   6.674
 1831TIP3   OH228945   7.240   2.505   7.338
 1831TIP3    H128946   7.335   2.512   7.336
 1831TIP3    H228947   7.223   2.411   7.327
 1832TIP3   OH228948   7.284   2.565   7.650
 1832TIP3    H128949   7.190   2.572   7.630
 1832TIP3    H228950   7.326   2.623   7.587
 1833TIP3   OH228951   5.714   2.366   7.852
 1833TIP3    H128952   5.791   2.358   7.908
 1833TIP3    H228953   5.650   2.306   7.890
 1834TIP3   OH228954   7.481   1.941   8.132
 1834TIP3    H128955   7.532   1.875   8.086
 1834TIP3    H228956   7.471   2.013   8.070
 1835TIP3   OH228957   7.181   2.158   6.797
 1835TIP3    H128958   7.240   2.105   6.852
 1835TIP3    H228959   7.135   2.094   6.743
 1836TIP3   OH228960   5.822   2.226   7.257
 1836TIP3    H128961   5.858   2.138   7.248
 1836TIP3    H228962   5.898   2.283   7.265
 1837TIP3   OH228963   5.642   2.531   7.305
 1837TIP3    H128964   5.721   2.526   7.252
 1837TIP3    H228965   5.665   2.592   7.376
 1838TIP3   OH228966   7.418   2.117   7.928
 1838TIP3    H128967   7.340   2.171   7.920
 1838TIP3    H228968   7.410   2.053   7.857
 1839TIP3   OH228969   7.116   3.632   6.904
 1839TIP3    H128970   7.186   3.636   6.839
 1839TIP3    H228971   7.146   3.688   6.976
 1840TIP3   OH228972   5.656   1.976   7.535
 1840TIP3    H128973   5.594   1.974   7.608
 1840TIP3    H228974   5.622   2.044   7.477
 1841TIP3   OH228975   5.908   3.354   7.985
 1841TIP3    H128976   5.816   3.367   7.965
 1841TIP3    H228977   5.908   3.314   8.072
 1842TIP3   OH228978   6.208   3.458   7.589
 1842TIP3    H128979   6.172   3.543   7.566
 1842TIP3    H228980   6.303   3.470   7.588
 1843TIP3   OH228981   6.599   3.577   7.869
 1843TIP3    H128982   6.593   3.557   7.962
 1843TIP3    H228983   6.675   3.635   7.861
 1844TIP3   OH228984   6.836   3.724   7.859
 1844TIP3    H128985   6.904   3.660   7.835
 1844TIP3    H228986   6.863   3.758   7.944
 1845TIP3   OH228987   7.311   1.934   7.741
 1845TIP3    H128988   7.236   1.952   7.684
 1845TIP3    H228989   7.334   1.844   7.721
 1846TIP3   OH228990   5.931   3.768   7.612
 1846TIP3    H128991   5.846   3.795   7.577
 1846TIP3    H228992   5.936   3.809   7.698
 1847TIP3   OH228993   6.189   3.731   7.528
 1847TIP3    H128994   6.099   3.745   7.557
 1847TIP3    H228995   6.196   3.781   7.447
 1848TIP3   OH228996   6.643   3.718   7.427
 1848TIP3    H128997   6.578   3.752   7.366
 1848TIP3    H228998   6.651   3.786   7.494
 1849TIP3   OH228999   6.872   3.595   7.518
 1849TIP3    H129000   6.792   3.639   7.490
 1849TIP3    H229001   6.939   3.663   7.514
 1850TIP3   OH229002   7.122   3.735   7.534
 1850TIP3    H129003   7.133   3.826   7.505
 1850TIP3    H229004   7.165   3.683   7.466
 1851TIP3   OH229005   5.890   3.621   7.279
 1851TIP3    H129006   5.876   3.575   7.362
 1851TIP3    H229007   5.965   3.576   7.240
 1852TIP3   OH229008   6.100   3.480   7.178
 1852TIP3    H129009   6.088   3.394   7.218
 1852TIP3    H229010   6.184   3.511   7.212
 1853TIP3   OH229011   6.354   3.530   7.288
 1853TIP3    H129012   6.366   3.440   7.258
 1853TIP3    H229013   6.381   3.528   7.380
 1854TIP3   OH229014   6.682   2.082   7.175
 1854TIP3    H129015   6.618   2.012   7.185
 1854TIP3    H229016   6.754   2.042   7.126
 1855TIP3   OH229017   7.154   1.955   7.180
 1855TIP3    H129018   7.220   1.953   7.110
 1855TIP3    H229019   7.071   1.935   7.136
 1856TIP3   OH229020   7.358   2.037   6.994
 1856TIP3    H129021   7.400   1.958   6.959
 1856TIP3    H229022   7.429   2.101   6.999
 1857TIP3   OH229023   5.901   1.952   6.935
 1857TIP3    H129024   5.810   1.931   6.912
 1857TIP3    H229025   5.948   1.870   6.924
 1858TIP3   OH229026   6.400   1.900   6.931
 1858TIP3    H129027   6.475   1.921   6.875
 1858TIP3    H229028   6.436   1.901   7.020
 1859TIP3   OH229029   6.898   1.942   7.058
 1859TIP3    H129030   6.918   1.930   6.966
 1859TIP3    H229031   6.862   1.857   7.086
 1860TIP3   OH229032   7.047   1.958   6.665
 1860TIP3    H129033   7.072   1.935   6.575
 1860TIP3    H229034   6.994   1.884   6.694
 1861TIP3   OH229035   5.706   3.502   6.598
 1861TIP3    H129036   5.676   3.461   6.517
 1861TIP3    H229037   5.628   3.541   6.637
 1862TIP3   OH229038   6.451   2.197   6.657
 1862TIP3    H129039   6.492   2.118   6.693
 1862TIP3    H229040   6.524   2.257   6.644
 1863TIP3   OH229041   6.754   3.761   6.406
 1863TIP3    H129042   6.817   3.825   6.372
 1863TIP3    H229043   6.771   3.682   6.356
 1864TIP3   OH229044   7.307   3.611   6.701
 1864TIP3    H129045   7.301   3.517   6.685
 1864TIP3    H229046   7.352   3.645   6.624
 1865TIP3   OH229047   5.914   2.026   7.865
 1865TIP3    H129048   5.852   1.957   7.890
 1865TIP3    H229049   5.994   2.004   7.913
 1866TIP3   OH229050   6.113   1.938   8.039
 1866TIP3    H129051   6.188   1.893   8.000
 1866TIP3    H229052   6.068   1.870   8.089
 1867TIP3   OH229053   6.965   1.873   8.096
 1867TIP3    H129054   6.964   1.829   8.181
 1867TIP3    H229055   7.055   1.865   8.065
 1868TIP3   OH229056   7.235   3.487   7.932
 1868TIP3    H129057   7.178   3.489   7.856
 1868TIP3    H229058   7.236   3.577   7.964
 1869TIP3   OH229059   7.549   2.554   6.854
 1869TIP3    H129060   7.499   2.559   6.772
 1869TIP3    H229061   7.526   2.469   6.891
 1870TIP3   OH229062   7.606   2.752   7.041
 1870TIP3    H129063   7.597   2.682   6.976
 1870TIP3    H229064   7.698   2.778   7.036
 1871TIP3   OH229065   7.625   3.237   6.677
 1871TIP3    H129066   7.640   3.213   6.585
 1871TIP3    H229067   7.617   3.332   6.676
 1872TIP3   OH229068   7.556   3.022   7.611
 1872TIP3    H129069   7.518   3.033   7.524
 1872TIP3    H229070   7.560   2.927   7.623
 1873TIP3   OH229071   7.555   3.324   7.290
 1873TIP3    H129072   7.650   3.317   7.287
 1873TIP3    H229073   7.539   3.405   7.338
 1874TIP3   OH229074   7.517   2.283   6.989
 1874TIP3    H129075   7.612   2.293   6.998
 1874TIP3    H229076   7.505   2.249   6.900
 1875TIP3   OH229077   7.589   2.371   6.549
 1875TIP3    H129078   7.632   2.387   6.465
 1875TIP3    H229079   7.520   2.437   6.554
 1876TIP3   OH229080   7.577   2.756   7.723
 1876TIP3    H129081   7.544   2.699   7.792
 1876TIP3    H229082   7.523   2.736   7.647
 1877TIP3   OH229083   7.618   3.649   7.966
 1877TIP3    H129084   7.713   3.643   7.963
 1877TIP3    H229085   7.587   3.563   7.937
 1878TIP3   OH229086   7.597   3.043   8.066
 1878TIP3    H129087   7.542   2.966   8.084
 1878TIP3    H229088   7.555   3.085   7.992
 1879TIP3   OH229089   7.663   3.164   6.418
 1879TIP3    H129090   7.749   3.175   6.376
 1879TIP3    H229091   7.603   3.147   6.345
 1880TIP3   OH229092   7.475   3.704   6.902
 1880TIP3    H129093   7.429   3.666   6.828
 1880TIP3    H229094   7.493   3.630   6.960
 1881TIP3   OH229095   7.537   3.498   7.070
 1881TIP3    H129096   7.529   3.424   7.129
 1881TIP3    H229097   7.630   3.520   7.071
 1882TIP3   OH229098   7.568   2.853   7.294
 1882TIP3    H129099   7.569   2.812   7.208
 1882TIP3    H229100   7.659   2.875   7.312
 1883TIP3   OH229101   7.559   2.360   7.942
 1883TIP3    H129102   7.649   2.330   7.926
 1883TIP3    H229103   7.508   2.280   7.948
 1884TIP3   OH229104   7.513   2.528   7.313
 1884TIP3    H129105   7.599   2.515   7.353
 1884TIP3    H229106   7.532   2.564   7.226
 1885TIP3   OH229107   7.497   2.192   6.736
 1885TIP3    H129108   7.466   2.114   6.690
 1885TIP3    H229109   7.544   2.242   6.669
 1886TIP3   OH229110   7.507   2.026   7.541
 1886TIP3    H129111   7.442   2.008   7.609
 1886TIP3    H229112   7.465   2.092   7.485
 1887TIP3   OH229113   7.619   3.513   6.680
 1887TIP3    H129114   7.569   3.551   6.607
 1887TIP3    H229115   7.689   3.576   6.696
 1888TIP3   OH229116   1.208   4.792   6.912
 1888TIP3    H129117   1.191   4.886   6.903
 1888TIP3    H229118   1.149   4.751   6.849
 1889TIP3   OH229119   1.067   4.693   7.304
 1889TIP3    H129120   1.103   4.647   7.380
 1889TIP3    H229121   1.026   4.624   7.252
 1890TIP3   OH229122   0.364   4.648   7.488
 1890TIP3    H129123   0.365   4.556   7.515
 1890TIP3    H229124   0.441   4.657   7.432
 1891TIP3   OH229125   1.467   4.997   7.129
 1891TIP3    H129126   1.414   4.929   7.171
 1891TIP3    H229127   1.473   5.067   7.194
 1892TIP3   OH229128   0.415   5.121   7.250
 1892TIP3    H129129   0.389   5.030   7.238
 1892TIP3    H229130   0.510   5.119   7.253
 1893TIP3   OH229131   0.137   4.475   6.799
 1893TIP3    H129132   0.147   4.562   6.836
 1893TIP3    H229133   0.043   4.459   6.801
 1894TIP3   OH229134   0.195   4.678   7.031
 1894TIP3    H129135   0.218   4.594   7.072
 1894TIP3    H229136   0.279   4.712   7.000
 1895TIP3   OH229137   1.161   5.497   7.127
 1895TIP3    H129138   1.226   5.444   7.080
 1895TIP3    H229139   1.127   5.437   7.194
 1896TIP3   OH229140   0.908   4.944   7.312
 1896TIP3    H129141   0.947   4.870   7.265
 1896TIP3    H229142   0.978   4.977   7.367
 1897TIP3   OH229143   1.794   4.059   7.394
 1897TIP3    H129144   1.788   4.130   7.458
 1897TIP3    H229145   1.870   4.081   7.341
 1898TIP3   OH229146   1.256   4.359   7.349
 1898TIP3    H129147   1.278   4.266   7.353
 1898TIP3    H229148   1.240   4.376   7.257
 1899TIP3   OH229149   0.585   4.163   7.057
 1899TIP3    H129150   0.597   4.246   7.012
 1899TIP3    H229151   0.540   4.108   6.994
 1900TIP3   OH229152   1.351   4.226   6.951
 1900TIP3    H129153   1.405   4.186   7.019
 1900TIP3    H229154   1.413   4.268   6.892
 1901TIP3   OH229155   0.252   4.427   7.137
 1901TIP3    H129156   0.320   4.381   7.186
 1901TIP3    H229157   0.260   4.394   7.048
 1902TIP3   OH229158   0.695   4.570   7.097
 1902TIP3    H129159   0.788   4.550   7.105
 1902TIP3    H229160   0.663   4.508   7.032
 1903TIP3   OH229161   1.778   4.234   7.608
 1903TIP3    H129162   1.729   4.314   7.588
 1903TIP3    H229163   1.834   4.258   7.682
 1904TIP3   OH229164   0.449   4.092   7.489
 1904TIP3    H129165   0.430   4.147   7.413
 1904TIP3    H229166   0.374   4.102   7.546
 1905TIP3   OH229167   1.147   5.049   6.829
 1905TIP3    H129168   1.116   5.052   6.739
 1905TIP3    H229169   1.220   5.111   6.832
 1906TIP3   OH229170   0.700   4.866   7.472
 1906TIP3    H129171   0.645   4.940   7.497
 1906TIP3    H229172   0.770   4.904   7.419
 1907TIP3   OH229173   1.521   4.146   7.150
 1907TIP3    H129174   1.594   4.093   7.120
 1907TIP3    H229175   1.561   4.214   7.205
 1908TIP3   OH229176   0.424   4.249   7.264
 1908TIP3    H129177   0.486   4.305   7.309
 1908TIP3    H229178   0.474   4.210   7.192
 1909TIP3   OH229179   0.545   5.082   7.553
 1909TIP3    H129180   0.560   5.166   7.511
 1909TIP3    H229181   0.457   5.088   7.590
 1910TIP3   OH229182   1.496   5.202   7.336
 1910TIP3    H129183   1.402   5.203   7.355
 1910TIP3    H229184   1.514   5.290   7.301
 1911TIP3   OH229185   1.514   3.976   7.481
 1911TIP3    H129186   1.440   4.019   7.437
 1911TIP3    H229187   1.589   3.997   7.426
 1912TIP3   OH229188   0.795   3.776   7.243
 1912TIP3    H129189   0.763   3.686   7.243
 1912TIP3    H229190   0.718   3.829   7.264
 1913TIP3   OH229191   1.352   5.357   6.999
 1913TIP3    H129192   1.375   5.276   6.954
 1913TIP3    H229193   1.421   5.418   6.976
 1914TIP3   OH229194   1.430   5.121   6.879
 1914TIP3    H129195   1.470   5.076   6.805
 1914TIP3    H229196   1.447   5.065   6.954
 1915TIP3   OH229197   1.618   4.980   7.692
 1915TIP3    H129198   1.601   4.930   7.611
 1915TIP3    H229199   1.623   5.071   7.663
 1916TIP3   OH229200   1.052   4.696   6.707
 1916TIP3    H129201   0.990   4.764   6.682
 1916TIP3    H229202   1.110   4.688   6.631
 1917TIP3   OH229203   1.779   4.689   7.533
 1917TIP3    H129204   1.702   4.743   7.515
 1917TIP3    H229205   1.834   4.699   7.456
 1918TIP3   OH229206   1.460   4.773   6.794
 1918TIP3    H129207   1.373   4.774   6.833
 1918TIP3    H229208   1.504   4.699   6.837
 1919TIP3   OH229209   1.401   4.583   7.678
 1919TIP3    H129210   1.401   4.672   7.712
 1919TIP3    H229211   1.327   4.579   7.618
 1920TIP3   OH229212   0.484   4.738   6.974
 1920TIP3    H129213   0.468   4.717   6.882
 1920TIP3    H229214   0.561   4.686   6.997
 1921TIP3   OH229215   0.695   5.114   7.225
 1921TIP3    H129216   0.688   5.123   7.130
 1921TIP3    H229217   0.771   5.058   7.238
 1922TIP3   OH229218   0.582   4.670   7.323
 1922TIP3    H129219   0.626   4.648   7.241
 1922TIP3    H229220   0.638   4.736   7.364
 1923TIP3   OH229221   1.237   5.218   7.415
 1923TIP3    H129222   1.213   5.286   7.478
 1923TIP3    H229223   1.188   5.141   7.443
 1924TIP3   OH229224   0.694   5.105   7.787
 1924TIP3    H129225   0.635   5.166   7.832
 1924TIP3    H229226   0.652   5.086   7.704
 1925TIP3   OH229227   1.249   4.639   6.519
 1925TIP3    H129228   1.312   4.703   6.485
 1925TIP3    H229229   1.206   4.604   6.441
 1926TIP3   OH229230   0.417   4.701   7.763
 1926TIP3    H129231   0.417   4.786   7.807
 1926TIP3    H229232   0.392   4.720   7.673
 1927TIP3   OH229233   1.081   5.397   6.791
 1927TIP3    H129234   1.081   5.380   6.885
 1927TIP3    H229235   1.028   5.477   6.781
 1928TIP3   OH229236   0.511   5.293   7.878
 1928TIP3    H129237   0.515   5.327   7.788
 1928TIP3    H229238   0.417   5.286   7.897
 1929TIP3   OH229239   1.689   3.809   6.605
 1929TIP3    H129240   1.595   3.824   6.592
 1929TIP3    H229241   1.732   3.866   6.541
 1930TIP3   OH229242   0.435   4.673   6.715
 1930TIP3    H129243   0.502   4.719   6.665
 1930TIP3    H229244   0.379   4.632   6.649
 1931TIP3   OH229245   0.112   4.933   7.655
 1931TIP3    H129246   0.023   4.938   7.622
 1931TIP3    H229247   0.127   4.840   7.670
 1932TIP3   OH229248   0.129   5.217   7.308
 1932TIP3    H129249   0.209   5.185   7.265
 1932TIP3    H229250   0.161   5.269   7.381
 1933TIP3   OH229251   1.872   5.291   7.895
 1933TIP3    H129252   1.861   5.199   7.872
 1933TIP3    H229253   1.785   5.320   7.923
 1934TIP3   OH229254   0.944   5.217   7.758
 1934TIP3    H129255   0.943   5.301   7.804
 1934TIP3    H229256   0.856   5.182   7.770
 1935TIP3   OH229257   0.957   5.631   6.715
 1935TIP3    H129258   0.993   5.630   6.626
 1935TIP3    H229259   0.992   5.710   6.755
 1936TIP3   OH229260   0.384   5.454   6.912
 1936TIP3    H129261   0.401   5.433   7.003
 1936TIP3    H229262   0.325   5.384   6.882
 1937TIP3   OH229263   1.312   5.525   6.686
 1937TIP3    H129264   1.246   5.466   6.721
 1937TIP3    H229265   1.342   5.483   6.606
 1938TIP3   OH229266   1.547   4.403   7.885
 1938TIP3    H129267   1.488   4.454   7.828
 1938TIP3    H229268   1.537   4.313   7.855
 1939TIP3   OH229269   0.309   5.111   7.701
 1939TIP3    H129270   0.352   5.057   7.768
 1939TIP3    H229271   0.235   5.059   7.671
 1940TIP3   OH229272   0.552   3.902   7.308
 1940TIP3    H129273   0.479   3.905   7.247
 1940TIP3    H229274   0.535   3.974   7.369
 1941TIP3   OH229275   1.034   3.870   7.647
 1941TIP3    H129276   1.078   3.833   7.723
 1941TIP3    H229277   0.941   3.859   7.665
 1942TIP3   OH229278   1.322   4.267   7.718
 1942TIP3    H129279   1.256   4.251   7.786
 1942TIP3    H229280   1.299   4.352   7.681
 1943TIP3   OH229281   0.587   4.410   7.407
 1943TIP3    H129282   0.592   4.427   7.501
 1943TIP3    H229283   0.594   4.496   7.366
 1944TIP3   OH229284   0.586   4.397   6.916
 1944TIP3    H129285   0.492   4.387   6.901
 1944TIP3    H229286   0.626   4.387   6.829
 1945TIP3   OH229287   1.120   4.455   6.817
 1945TIP3    H129288   1.086   4.538   6.783
 1945TIP3    H229289   1.183   4.426   6.751
 1946TIP3   OH229290   1.022   4.480   7.937
 1946TIP3    H129291   0.970   4.405   7.967
 1946TIP3    H229292   1.106   4.472   7.983
 1947TIP3   OH229293   1.220   4.429   7.079
 1947TIP3    H129294   1.192   4.485   7.007
 1947TIP3    H229295   1.254   4.350   7.036
 1948TIP3   OH229296   0.300   4.399   7.590
 1948TIP3    H129297   0.384   4.404   7.637
 1948TIP3    H229298   0.272   4.308   7.601
 1949TIP3   OH229299   0.646   4.231   6.364
 1949TIP3    H129300   0.652   4.145   6.404
 1949TIP3    H229301   0.650   4.214   6.269
 1950TIP3   OH229302   0.069   4.135   6.986
 1950TIP3    H129303   0.155   4.148   7.025
 1950TIP3    H229304   0.086   4.118   6.894
 1951TIP3   OH229305   0.181   4.189   6.466
 1951TIP3    H129306   0.214   4.279   6.469
 1951TIP3    H229307   0.176   4.163   6.558
 1952TIP3   OH229308   1.175   4.549   7.521
 1952TIP3    H129309   1.209   4.485   7.459
 1952TIP3    H229310   1.108   4.501   7.570
 1953TIP3   OH229311   0.864   4.198   7.096
 1953TIP3    H129312   0.772   4.173   7.092
 1953TIP3    H229313   0.910   4.116   7.114
 1954TIP3   OH229314   0.322   4.306   6.905
 1954TIP3    H129315   0.262   4.346   6.842
 1954TIP3    H229316   0.349   4.224   6.864
 1955TIP3   OH229317   0.671   4.352   6.660
 1955TIP3    H129318   0.764   4.357   6.638
 1955TIP3    H229319   0.628   4.402   6.590
 1956TIP3   OH229320   1.279   4.078   7.345
 1956TIP3    H129321   1.185   4.064   7.357
 1956TIP3    H229322   1.297   4.047   7.256
 1957TIP3   OH229323   0.518   4.458   6.453
 1957TIP3    H129324   0.424   4.451   6.436
 1957TIP3    H229325   0.556   4.380   6.411
 1958TIP3   OH229326   1.594   5.655   7.993
 1958TIP3    H129327   1.602   5.682   7.901
 1958TIP3    H229328   1.669   5.695   8.036
 1959TIP3   OH229329   0.388   4.939   7.903
 1959TIP3    H129330   0.453   4.932   7.972
 1959TIP3    H229331   0.304   4.933   7.948
 1960TIP3   OH229332   0.951   4.454   7.169
 1960TIP3    H129333   1.039   4.449   7.132
 1960TIP3    H229334   0.913   4.367   7.152
 1961TIP3   OH229335   0.434   4.063   6.846
 1961TIP3    H129336   0.390   3.979   6.857
 1961TIP3    H229337   0.479   4.055   6.762
 1962TIP3   OH229338   0.821   4.255   7.460
 1962TIP3    H129339   0.770   4.314   7.405
 1962TIP3    H229340   0.902   4.302   7.477
 1963TIP3   OH229341   0.858   4.894   6.666
 1963TIP3    H129342   0.782   4.863   6.617
 1963TIP3    H229343   0.826   4.905   6.755
 1964TIP3   OH229344   1.570   4.851   7.456
 1964TIP3    H129345   1.622   4.911   7.402
 1964TIP3    H229346   1.494   4.831   7.403
 1965TIP3   OH229347   1.007   4.933   7.741
 1965TIP3    H129348   1.035   4.903   7.828
 1965TIP3    H229349   0.985   5.025   7.753
 1966TIP3   OH229350   1.296   4.380   6.606
 1966TIP3    H129351   1.328   4.340   6.526
 1966TIP3    H229352   1.278   4.471   6.582
 1967TIP3   OH229353   0.397   4.848   7.210
 1967TIP3    H129354   0.418   4.830   7.119
 1967TIP3    H229355   0.457   4.794   7.260
 1968TIP3   OH229356   1.059   5.070   6.564
 1968TIP3    H129357   1.028   5.152   6.527
 1968TIP3    H229358   0.979   5.017   6.575
 1969TIP3   OH229359   0.140   4.662   7.708
 1969TIP3    H129360   0.208   4.652   7.775
 1969TIP3    H229361   0.060   4.634   7.751
 1970TIP3   OH229362   0.820   4.665   7.910
 1970TIP3    H129363   0.799   4.667   7.816
 1970TIP3    H229364   0.900   4.611   7.915
 1971TIP3   OH229365   1.227   5.173   7.757
 1971TIP3    H129366   1.137   5.188   7.728
 1971TIP3    H229367   1.229   5.207   7.847
 1972TIP3   OH229368   1.849   5.022   7.837
 1972TIP3    H129369   1.758   5.009   7.811
 1972TIP3    H229370   1.900   4.996   7.760
 1973TIP3   OH229371   1.657   5.250   6.638
 1973TIP3    H129372   1.611   5.166   6.640
 1973TIP3    H229373   1.614   5.299   6.567
 1974TIP3   OH229374   1.354   4.779   7.290
 1974TIP3    H129375   1.262   4.768   7.269
 1974TIP3    H229376   1.398   4.705   7.246
 1975TIP3   OH229377   0.623   5.174   6.960
 1975TIP3    H129378   0.659   5.254   6.922
 1975TIP3    H229379   0.536   5.166   6.922
 1976TIP3   OH229380   0.718   4.918   6.909
 1976TIP3    H129381   0.700   5.011   6.920
 1976TIP3    H229382   0.633   4.876   6.915
 1977TIP3   OH229383   0.828   5.367   7.541
 1977TIP3    H129384   0.884   5.440   7.516
 1977TIP3    H229385   0.884   5.312   7.595
 1978TIP3   OH229386   0.646   5.421   6.834
 1978TIP3    H129387   0.553   5.442   6.846
 1978TIP3    H229388   0.692   5.499   6.864
 1979TIP3   OH229389   1.120   4.977   7.491
 1979TIP3    H129390   1.085   4.951   7.577
 1979TIP3    H229391   1.183   4.909   7.469
 1980TIP3   OH229392   1.444   5.403   7.720
 1980TIP3    H129393   1.360   5.361   7.700
 1980TIP3    H229394   1.446   5.480   7.662
 1981TIP3   OH229395   1.875   5.484   6.408
 1981TIP3    H129396   1.899   5.571   6.439
 1981TIP3    H229397   1.782   5.476   6.428
 1982TIP3   OH229398   0.238   4.136   7.665
 1982TIP3    H129399   0.181   4.166   7.737
 1982TIP3    H229400   0.218   4.042   7.657
 1983TIP3   OH229401   1.548   4.979   6.643
 1983TIP3    H129402   1.517   4.904   6.695
 1983TIP3    H229403   1.510   4.964   6.556
 1984TIP3   OH229404   0.235   5.368   7.519
 1984TIP3    H129405   0.278   5.301   7.573
 1984TIP3    H229406   0.238   5.447   7.573
 1985TIP3   OH229407   1.093   4.138   7.597
 1985TIP3    H129408   1.187   4.145   7.614
 1985TIP3    H229409   1.072   4.046   7.612
 1986TIP3   OH229410   1.216   4.093   6.745
 1986TIP3    H129411   1.208   4.160   6.677
 1986TIP3    H229412   1.260   4.138   6.818
 1987TIP3   OH229413   0.995   5.351   6.532
 1987TIP3    H129414   0.906   5.382   6.545
 1987TIP3    H229415   1.034   5.350   6.620
 1988TIP3   OH229416   0.927   4.254   6.820
 1988TIP3    H129417   0.992   4.324   6.814
 1988TIP3    H229418   0.907   4.247   6.913
 1989TIP3   OH229419   1.005   4.392   7.663
 1989TIP3    H129420   1.011   4.408   7.757
 1989TIP3    H229421   1.025   4.299   7.653
 1990TIP3   OH229422   1.019   3.924   6.845
 1990TIP3    H129423   1.016   3.948   6.938
 1990TIP3    H229424   1.088   3.979   6.808
 1991TIP3   OH229425   0.722   5.427   6.561
 1991TIP3    H129426   0.688   5.354   6.509
 1991TIP3    H229427   0.693   5.409   6.650
 1992TIP3   OH229428   0.584   4.087   6.618
 1992TIP3    H129429   0.602   4.181   6.623
 1992TIP3    H229430   0.671   4.046   6.624
 1993TIP3   OH229431   1.560   4.142   7.764
 1993TIP3    H129432   1.471   4.164   7.735
 1993TIP3    H229433   1.612   4.143   7.684
 1994TIP3   OH229434   1.461   4.543   7.179
 1994TIP3    H129435   1.380   4.501   7.151
 1994TIP3    H229436   1.511   4.474   7.222
 1995TIP3   OH229437   1.552   5.483   7.323
 1995TIP3    H129438   1.539   5.547   7.253
 1995TIP3    H229439   1.647   5.486   7.340
 1996TIP3   OH229440   0.288   3.906   7.197
 1996TIP3    H129441   0.288   3.894   7.102
 1996TIP3    H229442   0.268   3.819   7.233
 1997TIP3   OH229443   0.217   5.259   6.811
 1997TIP3    H129444   0.135   5.235   6.854
 1997TIP3    H229445   0.232   5.189   6.747
 1998TIP3   OH229446   0.190   5.522   7.975
 1998TIP3    H129447   0.237   5.533   8.058
 1998TIP3    H229448   0.207   5.432   7.949
 1999TIP3   OH229449   0.611   5.398   8.113
 1999TIP3    H129450   0.684   5.338   8.126
 1999TIP3    H229451   0.573   5.371   8.029
 2000TIP3   OH229452   1.216   5.258   8.020
 2000TIP3    H129453   1.207   5.174   8.064
 2000TIP3    H229454   1.298   5.294   8.055
 2001TIP3   OH229455   0.153   4.901   8.039
 2001TIP3    H129456   0.166   4.806   8.031
 2001TIP3    H229457   0.058   4.912   8.043
 2002TIP3   OH229458   0.786   4.935   7.984
 2002TIP3    H129459   0.763   4.980   7.902
 2002TIP3    H229460   0.811   4.847   7.956
 2003TIP3   OH229461   1.079   5.062   6.262
 2003TIP3    H129462   1.093   5.046   6.355
 2003TIP3    H229463   1.143   5.006   6.218
 2004TIP3   OH229464   1.356   4.921   7.770
 2004TIP3    H129465   1.445   4.949   7.746
 2004TIP3    H229466   1.302   4.998   7.756
 2005TIP3   OH229467   0.212   4.628   8.020
 2005TIP3    H129468   0.305   4.605   8.015
 2005TIP3    H229469   0.193   4.631   8.114
 2006TIP3   OH229470   0.630   4.779   6.553
 2006TIP3    H129471   0.648   4.706   6.493
 2006TIP3    H229472   0.622   4.855   6.496
 2007TIP3   OH229473   0.578   4.502   7.670
 2007TIP3    H129474   0.523   4.566   7.716
 2007TIP3    H229475   0.661   4.549   7.655
 2008TIP3   OH229476   1.127   4.790   8.048
 2008TIP3    H129477   1.210   4.751   8.022
 2008TIP3    H229478   1.087   4.725   8.106
 2009TIP3   OH229479   1.720   4.741   6.234
 2009TIP3    H129480   1.721   4.649   6.208
 2009TIP3    H229481   1.645   4.779   6.187
 2010TIP3   OH229482   0.655   4.290   7.826
 2010TIP3    H129483   0.665   4.215   7.768
 2010TIP3    H229484   0.637   4.364   7.768
 2011TIP3   OH229485   0.681   4.101   7.630
 2011TIP3    H129486   0.742   4.147   7.571
 2011TIP3    H229487   0.600   4.095   7.580
 2012TIP3   OH229488   0.795   4.664   7.633
 2012TIP3    H129489   0.888   4.655   7.609
 2012TIP3    H229490   0.764   4.740   7.583
 2013TIP3   OH229491   1.237   4.438   8.115
 2013TIP3    H129492   1.247   4.356   8.164
 2013TIP3    H229493   1.325   4.460   8.086
 2014TIP3   OH229494   1.398   4.740   7.968
 2014TIP3    H129495   1.367   4.807   7.907
 2014TIP3    H229496   1.487   4.721   7.941
 2015TIP3   OH229497   0.516   4.368   8.056
 2015TIP3    H129498   0.439   4.312   8.043
 2015TIP3    H229499   0.566   4.360   7.975
 2016TIP3   OH229500   0.759   3.842   7.660
 2016TIP3    H129501   0.736   3.934   7.649
 2016TIP3    H229502   0.691   3.795   7.612
 2017TIP3   OH229503   0.874   4.256   7.988
 2017TIP3    H129504   0.828   4.221   8.064
 2017TIP3    H229505   0.806   4.268   7.922
 2018TIP3   OH229506   1.136   4.203   7.907
 2018TIP3    H129507   1.043   4.213   7.930
 2018TIP3    H229508   1.169   4.136   7.967
 2019TIP3   OH229509   1.211   4.025   8.099
 2019TIP3    H129510   1.258   3.943   8.103
 2019TIP3    H229511   1.248   4.079   8.169
 2020TIP3   OH229512   0.331   4.171   8.022
 2020TIP3    H129513   0.379   4.107   7.969
 2020TIP3    H229514   0.309   4.125   8.102
 2021TIP3   OH229515   0.733   3.778   7.926
 2021TIP3    H129516   0.791   3.702   7.925
 2021TIP3    H229517   0.735   3.811   7.836
 2022TIP3   OH229518   0.776   3.908   8.167
 2022TIP3    H129519   0.769   3.866   8.082
 2022TIP3    H229520   0.745   3.998   8.153
 2023TIP3   OH229521   0.746   5.688   6.451
 2023TIP3    H129522   0.745   5.605   6.498
 2023TIP3    H229523   0.679   5.741   6.494
 2024TIP3   OH229524   0.065   5.656   6.827
 2024TIP3    H129525   0.003   5.725   6.804
 2024TIP3    H229526   0.037   5.627   6.914
 2025TIP3   OH229527   0.092   5.470   7.040
 2025TIP3    H129528   0.004   5.445   7.068
 2025TIP3    H229529   0.140   5.486   7.121
 2026TIP3   OH229530   1.817   5.516   7.383
 2026TIP3    H129531   1.868   5.587   7.422
 2026TIP3    H229532   1.856   5.505   7.296
 2027TIP3   OH229533   1.794   5.463   7.678
 2027TIP3    H129534   1.780   5.424   7.592
 2027TIP3    H229535   1.823   5.391   7.733
 2028TIP3   OH229536   1.650   5.029   8.186
 2028TIP3    H129537   1.563   5.046   8.220
 2028TIP3    H229538   1.695   5.113   8.193
 2029TIP3   OH229539   1.819   4.875   6.646
 2029TIP3    H129540   1.734   4.918   6.650
 2029TIP3    H229541   1.820   4.815   6.721
 2030TIP3   OH229542   1.831   4.688   6.855
 2030TIP3    H129543   1.744   4.655   6.879
 2030TIP3    H229544   1.876   4.700   6.939
 2031TIP3   OH229545   1.818   4.978   7.379
 2031TIP3    H129546   1.854   4.911   7.322
 2031TIP3    H229547   1.839   5.061   7.336
 2032TIP3   OH229548   1.621   5.230   7.586
 2032TIP3    H129549   1.560   5.293   7.625
 2032TIP3    H229550   1.590   5.220   7.496
 2033TIP3   OH229551   1.887   4.696   6.446
 2033TIP3    H129552   1.826   4.709   6.373
 2033TIP3    H229553   1.857   4.758   6.513
 2034TIP3   OH229554   1.597   4.570   6.935
 2034TIP3    H129555   1.584   4.484   6.895
 2034TIP3    H229556   1.553   4.565   7.019
 2035TIP3   OH229557   0.154   4.748   7.350
 2035TIP3    H129558   0.174   4.784   7.264
 2035TIP3    H229559   0.236   4.752   7.398
 2036TIP3   OH229560   1.659   4.735   7.878
 2036TIP3    H129561   1.714   4.657   7.866
 2036TIP3    H229562   1.673   4.786   7.798
 2037TIP3   OH229563   1.801   4.502   7.882
 2037TIP3    H129564   1.715   4.461   7.884
 2037TIP3    H229565   1.862   4.428   7.885
 2038TIP3   OH229566   1.559   4.330   6.798
 2038TIP3    H129567   1.591   4.240   6.790
 2038TIP3    H229568   1.531   4.354   6.710
 2039TIP3   OH229569   1.629   4.354   7.304
 2039TIP3    H129570   1.723   4.372   7.292
 2039TIP3    H229571   1.612   4.377   7.396
 2040TIP3   OH229572   1.627   4.459   7.566
 2040TIP3    H129573   1.545   4.496   7.600
 2040TIP3    H229574   1.683   4.535   7.551
 2041TIP3   OH229575   0.091   4.150   7.899
 2041TIP3    H129576   0.167   4.180   7.949
 2041TIP3    H229577   0.098   4.055   7.899
 2042TIP3   OH229578   1.845   3.876   8.086
 2042TIP3    H129579   1.902   3.815   8.038
 2042TIP3    H229580   1.832   3.949   8.025
 2043TIP3   OH229581   1.617   4.063   6.790
 2043TIP3    H129582   1.649   4.014   6.865
 2043TIP3    H229583   1.559   4.001   6.744
 2044TIP3   OH229584   0.178   4.130   7.322
 2044TIP3    H129585   0.191   4.045   7.280
 2044TIP3    H229586   0.256   4.180   7.300
 2045TIP3   OH229587   0.071   4.392   7.340
 2045TIP3    H129588   0.084   4.298   7.349
 2045TIP3    H229589   0.120   4.416   7.261
 2046TIP3   OH229590   1.741   4.099   7.962
 2046TIP3    H129591   1.687   4.118   8.039
 2046TIP3    H229592   1.679   4.101   7.889
 2047TIP3   OH229593   1.762   4.002   6.410
 2047TIP3    H129594   1.711   3.956   6.343
 2047TIP3    H229595   1.773   4.091   6.376
 2048TIP3   OH229596   0.081   4.072   6.710
 2048TIP3    H129597  -0.014   4.067   6.709
 2048TIP3    H229598   0.110   3.998   6.657
 2049TIP3   OH229599   1.555   5.539   6.949
 2049TIP3    H129600   1.584   5.513   6.862
 2049TIP3    H229601   1.622   5.599   6.980
 2050TIP3   OH229602   0.072   3.918   7.541
 2050TIP3    H129603  -0.019   3.890   7.538
 2050TIP3    H229604   0.078   3.988   7.476
 2051TIP3   OH229605   0.239   5.253   7.940
 2051TIP3    H129606   0.228   5.198   7.863
 2051TIP3    H229607   0.203   5.202   8.012
 2052TIP3   OH229608   0.563   5.369   7.617
 2052TIP3    H129609   0.538   5.456   7.585
 2052TIP3    H229610   0.656   5.363   7.598
 2053TIP3   OH229611   0.942   5.464   7.890
 2053TIP3    H129612   0.954   5.448   7.984
 2053TIP3    H229613   1.017   5.518   7.865
 2054TIP3   OH229614   1.171   5.614   7.852
 2054TIP3    H129615   1.236   5.572   7.795
 2054TIP3    H229616   1.218   5.635   7.932
 2055TIP3   OH229617   1.669   3.823   7.723
 2055TIP3    H129618   1.607   3.860   7.660
 2055TIP3    H229619   1.689   3.736   7.688
 2056TIP3   OH229620   0.273   5.661   7.624
 2056TIP3    H129621   0.203   5.711   7.582
 2056TIP3    H229622   0.282   5.701   7.711
 2057TIP3   OH229623   0.532   5.628   7.533
 2057TIP3    H129624   0.441   5.645   7.557
 2057TIP3    H229625   0.543   5.672   7.449
 2058TIP3   OH229626   0.985   5.576   7.450
 2058TIP3    H129627   0.932   5.605   7.376
 2058TIP3    H229628   1.000   5.655   7.502
 2059TIP3   OH229629   1.207   5.459   7.562
 2059TIP3    H129630   1.128   5.492   7.520
 2059TIP3    H229631   1.277   5.517   7.532
 2060TIP3   OH229632   1.449   5.614   7.539
 2060TIP3    H129633   1.453   5.707   7.516
 2060TIP3    H229634   1.483   5.569   7.462
 2061TIP3   OH229635   0.244   5.525   7.276
 2061TIP3    H129636   0.231   5.483   7.362
 2061TIP3    H229637   0.320   5.480   7.239
 2062TIP3   OH229638   0.450   5.384   7.171
 2062TIP3    H129639   0.433   5.292   7.191
 2062TIP3    H229640   0.538   5.401   7.203
 2063TIP3   OH229641   0.698   5.383   7.291
 2063TIP3    H129642   0.710   5.292   7.265
 2063TIP3    H229643   0.739   5.389   7.378
 2064TIP3   OH229644   0.993   3.947   7.130
 2064TIP3    H129645   0.938   3.882   7.174
 2064TIP3    H229646   1.080   3.908   7.127
 2065TIP3   OH229647   1.521   3.818   7.190
 2065TIP3    H129648   1.587   3.869   7.143
 2065TIP3    H229649   1.438   3.844   7.152
 2066TIP3   OH229650   1.713   3.951   7.034
 2066TIP3    H129651   1.762   3.877   6.995
 2066TIP3    H229652   1.777   4.022   7.036
 2067TIP3   OH229653   0.289   3.840   6.927
 2067TIP3    H129654   0.204   3.825   6.885
 2067TIP3    H229655   0.335   3.757   6.919
 2068TIP3   OH229656   0.134   3.862   6.536
 2068TIP3    H129657   0.194   3.855   6.462
 2068TIP3    H229658   0.143   3.779   6.583
 2069TIP3   OH229659   0.745   3.797   6.935
 2069TIP3    H129660   0.798   3.859   6.884
 2069TIP3    H229661   0.773   3.810   7.025
 2070TIP3   OH229662   1.261   3.857   7.072
 2070TIP3    H129663   1.283   3.863   6.979
 2070TIP3    H229664   1.231   3.767   7.084
 2071TIP3   OH229665   1.419   3.886   6.709
 2071TIP3    H129666   1.345   3.945   6.692
 2071TIP3    H229667   1.379   3.800   6.714
 2072TIP3   OH229668   0.133   5.469   6.488
 2072TIP3    H129669   0.048   5.512   6.479
 2072TIP3    H229670   0.175   5.479   6.403
 2073TIP3   OH229671   0.849   4.039   6.662
 2073TIP3    H129672   0.910   3.982   6.709
 2073TIP3    H229673   0.868   4.126   6.696
 2074TIP3   OH229674   1.081   5.619   6.461
 2074TIP3    H129675   1.170   5.642   6.436
 2074TIP3    H229676   1.079   5.524   6.458
 2075TIP3   OH229677   1.722   5.501   6.727
 2075TIP3    H129678   1.705   5.411   6.700
 2075TIP3    H229679   1.698   5.554   6.650
 2076TIP3   OH229680   0.241   3.887   7.879
 2076TIP3    H129681   0.194   3.808   7.906
 2076TIP3    H229682   0.325   3.883   7.923
 2077TIP3   OH229683   0.469   3.847   8.031
 2077TIP3    H129684   0.556   3.827   7.998
 2077TIP3    H229685   0.443   3.770   8.081
 2078TIP3   OH229686   1.340   3.778   8.094
 2078TIP3    H129687   1.344   3.725   8.174
 2078TIP3    H229688   1.430   3.780   8.062
 2079TIP3   OH229689   1.615   5.384   7.937
 2079TIP3    H129690   1.561   5.375   7.859
 2079TIP3    H229691   1.609   5.477   7.960
 2080TIP3   OH229692   3.086   4.773   6.930
 2080TIP3    H129693   3.073   4.868   6.935
 2080TIP3    H229694   3.027   4.744   6.861
 2081TIP3   OH229695   2.951   4.702   7.309
 2081TIP3    H129696   2.984   4.655   7.386
 2081TIP3    H229697   2.902   4.635   7.260
 2082TIP3   OH229698   2.185   4.647   7.424
 2082TIP3    H129699   2.180   4.561   7.464
 2082TIP3    H229700   2.278   4.662   7.409
 2083TIP3   OH229701   3.329   5.006   7.127
 2083TIP3    H129702   3.289   4.936   7.178
 2083TIP3    H229703   3.354   5.072   7.192
 2084TIP3   OH229704   2.341   5.108   7.285
 2084TIP3    H129705   2.310   5.024   7.253
 2084TIP3    H229706   2.431   5.114   7.256
 2085TIP3   OH229707   1.954   4.440   6.788
 2085TIP3    H129708   1.922   4.531   6.789
 2085TIP3    H229709   1.877   4.387   6.768
 2086TIP3   OH229710   2.031   4.689   7.061
 2086TIP3    H129711   2.060   4.599   7.078
 2086TIP3    H229712   2.087   4.719   6.990
 2087TIP3   OH229713   3.068   5.506   7.137
 2087TIP3    H129714   3.100   5.458   7.060
 2087TIP3    H229715   3.027   5.438   7.191
 2088TIP3   OH229716   2.804   4.949   7.334
 2088TIP3    H129717   2.843   4.874   7.289
 2088TIP3    H229718   2.875   4.984   7.388
 2089TIP3   OH229719   3.664   4.056   7.361
 2089TIP3    H129720   3.709   4.089   7.438
 2089TIP3    H229721   3.714   4.090   7.287
 2090TIP3   OH229722   3.117   4.371   7.352
 2090TIP3    H129723   3.140   4.278   7.355
 2090TIP3    H229724   3.102   4.389   7.260
 2091TIP3   OH229725   2.454   4.163   7.036
 2091TIP3    H129726   2.459   4.248   6.993
 2091TIP3    H229727   2.397   4.111   6.978
 2092TIP3   OH229728   3.225   4.222   6.960
 2092TIP3    H129729   3.274   4.178   7.029
 2092TIP3    H229730   3.292   4.259   6.902
 2093TIP3   OH229731   2.117   4.435   7.143
 2093TIP3    H129732   2.181   4.385   7.195
 2093TIP3    H229733   2.127   4.401   7.054
 2094TIP3   OH229734   2.557   4.560   7.114
 2094TIP3    H129735   2.649   4.536   7.127
 2094TIP3    H229736   2.526   4.502   7.045
 2095TIP3   OH229737   2.325   4.097   7.485
 2095TIP3    H129738   2.294   4.145   7.408
 2095TIP3    H229739   2.253   4.102   7.547
 2096TIP3   OH229740   2.989   5.023   6.857
 2096TIP3    H129741   2.942   5.011   6.775
 2096TIP3    H229742   2.970   5.113   6.883
 2097TIP3   OH229743   2.592   4.855   7.481
 2097TIP3    H129744   2.532   4.925   7.507
 2097TIP3    H229745   2.655   4.898   7.424
 2098TIP3   OH229746   3.388   4.119   7.161
 2098TIP3    H129747   3.465   4.072   7.130
 2098TIP3    H229748   3.423   4.199   7.202
 2099TIP3   OH229749   2.301   4.250   7.251
 2099TIP3    H129750   2.368   4.299   7.299
 2099TIP3    H229751   2.347   4.212   7.176
 2100TIP3   OH229752   2.425   5.064   7.551
 2100TIP3    H129753   2.401   5.094   7.464
 2100TIP3    H229754   2.344   5.073   7.602
 2101TIP3   OH229755   3.372   5.209   7.323
 2101TIP3    H129756   3.278   5.219   7.339
 2101TIP3    H229757   3.400   5.296   7.295
 2102TIP3   OH229758   3.409   3.981   7.459
 2102TIP3    H129759   3.341   4.033   7.417
 2102TIP3    H229760   3.489   4.003   7.412
 2103TIP3   OH229761   2.679   3.792   7.234
 2103TIP3    H129762   2.646   3.702   7.225
 2103TIP3    H229763   2.601   3.843   7.256
 2104TIP3   OH229764   3.178   5.375   6.916
 2104TIP3    H129765   3.216   5.288   6.905
 2104TIP3    H229766   3.254   5.433   6.923
 2105TIP3   OH229767   3.312   5.138   6.882
 2105TIP3    H129768   3.340   5.077   6.813
 2105TIP3    H229769   3.318   5.086   6.963
 2106TIP3   OH229770   3.488   4.991   7.685
 2106TIP3    H129771   3.488   4.935   7.607
 2106TIP3    H229772   3.502   5.079   7.651
 2107TIP3   OH229773   2.953   4.699   6.697
 2107TIP3    H129774   2.878   4.756   6.681
 2107TIP3    H229775   3.005   4.705   6.617
 2108TIP3   OH229776   2.996   4.497   6.328
 2108TIP3    H129777   3.061   4.527   6.392
 2108TIP3    H229778   2.967   4.577   6.285
 2109TIP3   OH229779   3.645   4.651   7.487
 2109TIP3    H129780   3.575   4.715   7.482
 2109TIP3    H229781   3.716   4.688   7.435
 2110TIP3   OH229782   3.297   4.704   6.764
 2110TIP3    H129783   3.231   4.733   6.828
 2110TIP3    H229784   3.366   4.665   6.817
 2111TIP3   OH229785   3.266   4.551   7.681
 2111TIP3    H129786   3.289   4.636   7.718
 2111TIP3    H229787   3.188   4.569   7.627
 2112TIP3   OH229788   2.411   4.760   6.950
 2112TIP3    H129789   2.394   4.734   6.859
 2112TIP3    H229790   2.470   4.692   6.983
 2113TIP3   OH229791   2.602   5.133   7.207
 2113TIP3    H129792   2.596   5.144   7.112
 2113TIP3    H229793   2.676   5.075   7.220
 2114TIP3   OH229794   2.457   4.647   7.359
 2114TIP3    H129795   2.488   4.634   7.269
 2114TIP3    H229796   2.502   4.726   7.388
 2115TIP3   OH229797   3.113   5.226   7.408
 2115TIP3    H129798   3.094   5.297   7.469
 2115TIP3    H229799   3.078   5.147   7.450
 2116TIP3   OH229800   2.580   5.106   7.784
 2116TIP3    H129801   2.517   5.163   7.827
 2116TIP3    H229802   2.543   5.091   7.697
 2117TIP3   OH229803   3.188   4.605   6.528
 2117TIP3    H129804   3.224   4.645   6.607
 2117TIP3    H229805   3.240   4.643   6.457
 2118TIP3   OH229806   2.257   4.697   7.760
 2118TIP3    H129807   2.260   4.783   7.801
 2118TIP3    H229808   2.169   4.690   7.724
 2119TIP3   OH229809   2.905   5.288   6.878
 2119TIP3    H129810   2.984   5.342   6.881
 2119TIP3    H229811   2.872   5.299   6.789
 2120TIP3   OH229812   2.389   5.269   7.893
 2120TIP3    H129813   2.393   5.313   7.808
 2120TIP3    H229814   2.295   5.259   7.910
 2121TIP3   OH229815   3.520   3.880   6.572
 2121TIP3    H129816   3.426   3.891   6.555
 2121TIP3    H229817   3.562   3.905   6.490
 2122TIP3   OH229818   2.367   4.674   6.680
 2122TIP3    H129819   2.424   4.695   6.606
 2122TIP3    H229820   2.284   4.649   6.640
 2123TIP3   OH229821   3.648   5.257   6.376
 2123TIP3    H129822   3.679   5.346   6.393
 2123TIP3    H229823   3.724   5.201   6.391
 2124TIP3   OH229824   1.970   4.933   7.608
 2124TIP3    H129825   1.916   4.953   7.532
 2124TIP3    H229826   1.978   4.837   7.608
 2125TIP3   OH229827   1.978   5.204   7.291
 2125TIP3    H129828   2.061   5.168   7.260
 2125TIP3    H229829   1.999   5.249   7.372
 2126TIP3   OH229830   3.744   5.288   7.888
 2126TIP3    H129831   3.733   5.194   7.872
 2126TIP3    H229832   3.660   5.317   7.922
 2127TIP3   OH229833   2.825   5.243   7.756
 2127TIP3    H129834   2.813   5.325   7.803
 2127TIP3    H229835   2.743   5.195   7.770
 2128TIP3   OH229836   2.910   5.609   6.681
 2128TIP3    H129837   2.839   5.593   6.618
 2128TIP3    H229838   2.879   5.685   6.732
 2129TIP3   OH229839   2.247   5.488   6.962
 2129TIP3    H129840   2.281   5.444   7.040
 2129TIP3    H229841   2.186   5.426   6.923
 2130TIP3   OH229842   3.144   5.406   6.353
 2130TIP3    H129843   3.235   5.397   6.325
 2130TIP3    H229844   3.149   5.439   6.443
 2131TIP3   OH229845   3.160   5.506   6.645
 2131TIP3    H129846   3.071   5.540   6.655
 2131TIP3    H229847   3.172   5.447   6.719
 2132TIP3   OH229848   3.363   4.418   7.931
 2132TIP3    H129849   3.358   4.444   7.839
 2132TIP3    H229850   3.420   4.341   7.932
 2133TIP3   OH229851   2.187   5.082   7.689
 2133TIP3    H129852   2.202   5.046   7.776
 2133TIP3    H229853   2.112   5.032   7.655
 2134TIP3   OH229854   2.435   3.904   7.312
 2134TIP3    H129855   2.361   3.895   7.253
 2134TIP3    H229856   2.411   3.977   7.369
 2135TIP3   OH229857   2.908   3.855   7.649
 2135TIP3    H129858   2.955   3.812   7.721
 2135TIP3    H229859   2.816   3.849   7.673
 2136TIP3   OH229860   3.232   4.269   7.712
 2136TIP3    H129861   3.172   4.274   7.787
 2136TIP3    H229862   3.240   4.359   7.681
 2137TIP3   OH229863   3.338   4.716   6.330
 2137TIP3    H129864   3.287   4.750   6.257
 2137TIP3    H229865   3.429   4.725   6.301
 2138TIP3   OH229866   2.455   4.390   7.438
 2138TIP3    H129867   2.377   4.388   7.494
 2138TIP3    H229868   2.457   4.478   7.402
 2139TIP3   OH229869   2.443   4.407   6.912
 2139TIP3    H129870   2.347   4.402   6.905
 2139TIP3    H229871   2.473   4.398   6.822
 2140TIP3   OH229872   3.010   4.449   6.796
 2140TIP3    H129873   2.984   4.537   6.766
 2140TIP3    H229874   3.078   4.422   6.735
 2141TIP3   OH229875   2.928   4.473   7.916
 2141TIP3    H129876   2.945   4.380   7.925
 2141TIP3    H229877   3.003   4.516   7.957
 2142TIP3   OH229878   3.086   4.433   7.083
 2142TIP3    H129879   3.063   4.501   7.020
 2142TIP3    H229880   3.112   4.358   7.029
 2143TIP3   OH229881   2.215   4.407   7.580
 2143TIP3    H129882   2.182   4.458   7.653
 2143TIP3    H229883   2.181   4.319   7.595
 2144TIP3   OH229884   1.911   4.132   6.995
 2144TIP3    H129885   1.996   4.171   7.013
 2144TIP3    H229886   1.914   4.110   6.902
 2145TIP3   OH229887   3.026   4.549   7.531
 2145TIP3    H129888   3.068   4.492   7.467
 2145TIP3    H229889   2.962   4.493   7.575
 2146TIP3   OH229890   2.736   4.184   7.016
 2146TIP3    H129891   2.644   4.169   7.034
 2146TIP3    H229892   2.781   4.108   7.053
 2147TIP3   OH229893   2.174   4.324   6.903
 2147TIP3    H129894   2.104   4.358   6.847
 2147TIP3    H229895   2.195   4.238   6.866
 2148TIP3   OH229896   2.526   4.340   6.652
 2148TIP3    H129897   2.620   4.342   6.665
 2148TIP3    H229898   2.510   4.398   6.578
 2149TIP3   OH229899   3.164   4.095   7.331
 2149TIP3    H129900   3.087   4.043   7.307
 2149TIP3    H229901   3.223   4.087   7.256
 2150TIP3   OH229902   3.476   5.657   7.986
 2150TIP3    H129903   3.497   5.686   7.898
 2150TIP3    H229904   3.552   5.684   8.039
 2151TIP3   OH229905   2.234   4.916   7.933
 2151TIP3    H129906   2.298   4.926   8.003
 2151TIP3    H229907   2.149   4.917   7.977
 2152TIP3   OH229908   2.818   4.468   7.208
 2152TIP3    H129909   2.888   4.437   7.150
 2152TIP3    H229910   2.790   4.389   7.255
 2153TIP3   OH229911   2.275   4.069   6.846
 2153TIP3    H129912   2.224   3.989   6.858
 2153TIP3    H229913   2.309   4.062   6.757
 2154TIP3   OH229914   2.711   4.286   7.432
 2154TIP3    H129915   2.626   4.330   7.430
 2154TIP3    H229916   2.759   4.330   7.503
 2155TIP3   OH229917   2.754   4.878   6.636
 2155TIP3    H129918   2.697   4.904   6.563
 2155TIP3    H229919   2.705   4.905   6.714
 2156TIP3   OH229920   3.457   4.851   7.451
 2156TIP3    H129921   3.518   4.906   7.401
 2156TIP3    H229922   3.383   4.839   7.392
 2157TIP3   OH229923   3.093   4.150   6.425
 2157TIP3    H129924   3.059   4.123   6.510
 2157TIP3    H229925   3.159   4.216   6.446
 2158TIP3   OH229926   2.915   4.953   7.805
 2158TIP3    H129927   2.937   5.028   7.860
 2158TIP3    H229928   2.936   4.981   7.716
 2159TIP3   OH229929   3.211   4.344   6.618
 2159TIP3    H129930   3.298   4.341   6.658
 2159TIP3    H229931   3.209   4.428   6.571
 2160TIP3   OH229932   2.298   4.857   7.185
 2160TIP3    H129933   2.335   4.836   7.100
 2160TIP3    H229934   2.260   4.775   7.216
 2161TIP3   OH229935   1.988   4.651   7.716
 2161TIP3    H129936   1.958   4.609   7.796
 2161TIP3    H229937   1.913   4.645   7.657
 2162TIP3   OH229938   2.663   4.582   7.905
 2162TIP3    H129939   2.595   4.576   7.837
 2162TIP3    H229940   2.718   4.505   7.890
 2163TIP3   OH229941   3.096   5.182   7.752
 2163TIP3    H129942   3.009   5.215   7.731
 2163TIP3    H229943   3.115   5.218   7.838
 2164TIP3   OH229944   3.686   4.394   6.537
 2164TIP3    H129945   3.629   4.349   6.474
 2164TIP3    H229946   3.687   4.485   6.507
 2165TIP3   OH229947   3.715   5.013   7.842
 2165TIP3    H129948   3.626   5.003   7.807
 2165TIP3    H229949   3.771   4.992   7.768
 2166TIP3   OH229950   3.540   5.237   6.636
 2166TIP3    H129951   3.486   5.162   6.660
 2166TIP3    H229952   3.558   5.226   6.543
 2167TIP3   OH229953   3.231   4.785   7.285
 2167TIP3    H129954   3.140   4.768   7.261
 2167TIP3    H229955   3.280   4.713   7.245
 2168TIP3   OH229956   2.528   5.203   6.945
 2168TIP3    H129957   2.564   5.289   6.922
 2168TIP3    H229958   2.448   5.196   6.892
 2169TIP3   OH229959   2.154   4.648   6.485
 2169TIP3    H129960   2.212   4.715   6.448
 2169TIP3    H229961   2.067   4.687   6.479
 2170TIP3   OH229962   2.618   4.945   6.870
 2170TIP3    H129963   2.600   5.036   6.891
 2170TIP3    H229964   2.541   4.897   6.900
 2171TIP3   OH229965   2.704   5.378   7.542
 2171TIP3    H129966   2.761   5.450   7.514
 2171TIP3    H229967   2.760   5.324   7.599
 2172TIP3   OH229968   2.514   5.483   6.879
 2172TIP3    H129969   2.419   5.492   6.887
 2172TIP3    H229970   2.548   5.572   6.891
 2173TIP3   OH229971   3.053   4.959   7.498
 2173TIP3    H129972   3.112   4.942   7.571
 2173TIP3    H229973   3.093   4.915   7.423
 2174TIP3   OH229974   3.319   5.403   7.713
 2174TIP3    H129975   3.231   5.371   7.693
 2174TIP3    H229976   3.331   5.478   7.655
 2175TIP3   OH229977   3.740   5.512   6.427
 2175TIP3    H129978   3.779   5.566   6.358
 2175TIP3    H229979   3.672   5.566   6.465
 2176TIP3   OH229980   2.130   4.146   7.680
 2176TIP3    H129981   2.052   4.190   7.715
 2176TIP3    H229982   2.126   4.058   7.717
 2177TIP3   OH229983   3.414   4.958   6.686
 2177TIP3    H129984   3.359   4.880   6.695
 2177TIP3    H229985   3.502   4.925   6.670
 2178TIP3   OH229986   2.104   5.325   7.518
 2178TIP3    H129987   2.144   5.249   7.561
 2178TIP3    H229988   2.106   5.394   7.585
 2179TIP3   OH229989   2.987   4.119   7.651
 2179TIP3    H129990   3.073   4.129   7.609
 2179TIP3    H229991   2.963   4.028   7.635
 2180TIP3   OH229992   3.112   4.110   6.728
 2180TIP3    H129993   3.137   4.190   6.682
 2180TIP3    H229994   3.134   4.127   6.820
 2181TIP3   OH229995   2.821   5.299   6.613
 2181TIP3    H129996   2.726   5.309   6.621
 2181TIP3    H229997   2.842   5.331   6.526
 2182TIP3   OH229998   2.790   4.283   6.761
 2182TIP3    H129999   2.862   4.344   6.775
 2182TIP3    H230000   2.766   4.254   6.849
 2183TIP3   OH230001   2.863   4.367   7.657
 2183TIP3    H130002   2.881   4.398   7.745
 2183TIP3    H230003   2.900   4.279   7.654
 2184TIP3   OH230004   2.879   3.936   6.802
 2184TIP3    H130005   2.875   3.956   6.896
 2184TIP3    H230006   2.936   4.003   6.765
 2185TIP3   OH230007   2.553   5.381   6.603
 2185TIP3    H130008   2.591   5.419   6.524
 2185TIP3    H230009   2.556   5.451   6.668
 2186TIP3   OH230010   2.408   4.090   6.600
 2186TIP3    H130011   2.434   4.181   6.614
 2186TIP3    H230012   2.466   4.059   6.531
 2187TIP3   OH230013   3.450   4.103   7.720
 2187TIP3    H130014   3.375   4.162   7.719
 2187TIP3    H230015   3.467   4.085   7.627
 2188TIP3   OH230016   3.336   4.546   7.173
 2188TIP3    H130017   3.252   4.502   7.156
 2188TIP3    H230018   3.389   4.478   7.215
 2189TIP3   OH230019   3.461   5.476   7.311
 2189TIP3    H130020   3.447   5.551   7.252
 2189TIP3    H230021   3.555   5.475   7.327
 2190TIP3   OH230022   2.188   3.875   7.192
 2190TIP3    H130023   2.173   3.871   7.098
 2190TIP3    H230024   2.156   3.791   7.225
 2191TIP3   OH230025   2.064   5.313   6.856
 2191TIP3    H130026   1.983   5.262   6.857
 2191TIP3    H230027   2.060   5.364   6.775
 2192TIP3   OH230028   2.017   5.557   7.985
 2192TIP3    H130029   2.084   5.525   8.045
 2192TIP3    H230030   1.984   5.479   7.941
 2193TIP3   OH230031   2.454   5.389   8.129
 2193TIP3    H130032   2.545   5.363   8.145
 2193TIP3    H230033   2.433   5.350   8.044
 2194TIP3   OH230034   3.111   5.254   8.015
 2194TIP3    H130035   3.095   5.169   8.056
 2194TIP3    H230036   3.191   5.286   8.056
 2195TIP3   OH230037   3.412   5.383   6.274
 2195TIP3    H130038   3.479   5.322   6.308
 2195TIP3    H230039   3.463   5.453   6.234
 2196TIP3   OH230040   1.984   4.929   8.060
 2196TIP3    H130041   1.927   4.858   8.090
 2196TIP3    H230042   1.937   4.967   7.986
 2197TIP3   OH230043   2.640   4.886   7.938
 2197TIP3    H130044   2.628   4.960   7.878
 2197TIP3    H230045   2.552   4.866   7.969
 2198TIP3   OH230046   3.223   4.938   7.729
 2198TIP3    H130047   3.316   4.956   7.714
 2198TIP3    H230048   3.184   5.024   7.741
 2199TIP3   OH230049   2.123   4.553   7.991
 2199TIP3    H130050   2.180   4.606   7.936
 2199TIP3    H230051   2.112   4.604   8.071
 2200TIP3   OH230052   2.483   4.551   7.698
 2200TIP3    H130053   2.403   4.600   7.717
 2200TIP3    H230054   2.501   4.570   7.606
 2201TIP3   OH230055   3.008   4.742   8.043
 2201TIP3    H130056   3.093   4.752   8.000
 2201TIP3    H230057   3.029   4.701   8.127
 2202TIP3   OH230058   3.618   4.784   6.236
 2202TIP3    H130059   3.696   4.767   6.182
 2202TIP3    H230060   3.575   4.858   6.193
 2203TIP3   OH230061   2.560   4.304   7.803
 2203TIP3    H130062   2.567   4.232   7.740
 2203TIP3    H230063   2.532   4.379   7.751
 2204TIP3   OH230064   2.575   4.108   7.600
 2204TIP3    H130065   2.630   4.151   7.534
 2204TIP3    H230066   2.487   4.107   7.561
 2205TIP3   OH230067   2.775   4.713   7.634
 2205TIP3    H130068   2.837   4.685   7.567
 2205TIP3    H230069   2.706   4.758   7.586
 2206TIP3   OH230070   3.155   4.447   8.098
 2206TIP3    H130071   3.169   4.365   8.144
 2206TIP3    H230072   3.230   4.455   8.039
 2207TIP3   OH230073   3.270   4.766   7.938
 2207TIP3    H130074   3.250   4.831   7.870
 2207TIP3    H230075   3.362   4.745   7.925
 2208TIP3   OH230076   2.396   4.338   8.031
 2208TIP3    H130077   2.305   4.315   8.010
 2208TIP3    H230078   2.441   4.338   7.947
 2209TIP3   OH230079   2.626   3.846   7.664
 2209TIP3    H130080   2.614   3.939   7.644
 2209TIP3    H230081   2.558   3.801   7.614
 2210TIP3   OH230082   2.716   4.286   8.033
 2210TIP3    H130083   2.666   4.214   8.072
 2210TIP3    H230084   2.681   4.295   7.945
 2211TIP3   OH230085   3.020   4.219   7.904
 2211TIP3    H130086   3.002   4.167   7.826
 2211TIP3    H230087   3.044   4.155   7.971
 2212TIP3   OH230088   3.097   4.035   8.091
 2212TIP3    H130089   3.126   3.944   8.101
 2212TIP3    H230090   3.147   4.083   8.156
 2213TIP3   OH230091   2.157   4.182   8.002
 2213TIP3    H130092   2.162   4.113   7.937
 2213TIP3    H230093   2.165   4.137   8.087
 2214TIP3   OH230094   2.584   3.778   7.928
 2214TIP3    H130095   2.652   3.710   7.922
 2214TIP3    H230096   2.584   3.818   7.841
 2215TIP3   OH230097   2.662   3.899   8.166
 2215TIP3    H130098   2.641   3.860   8.082
 2215TIP3    H230099   2.618   3.985   8.164
 2216TIP3   OH230100   1.894   5.613   6.909
 2216TIP3    H130101   1.849   5.571   6.836
 2216TIP3    H230102   1.902   5.543   6.975
 2217TIP3   OH230103   1.921   5.444   7.131
 2217TIP3    H130104   1.910   5.351   7.148
 2217TIP3    H230105   2.008   5.465   7.167
 2218TIP3   OH230106   3.726   5.504   7.373
 2218TIP3    H130107   3.735   5.528   7.465
 2218TIP3    H230108   3.809   5.530   7.333
 2219TIP3   OH230109   3.663   5.449   7.661
 2219TIP3    H130110   3.622   5.377   7.614
 2219TIP3    H230111   3.711   5.407   7.732
 2220TIP3   OH230112   3.536   5.050   8.180
 2220TIP3    H130113   3.458   5.069   8.232
 2220TIP3    H230114   3.590   5.128   8.189
 2221TIP3   OH230115   3.674   4.853   6.663
 2221TIP3    H130116   3.744   4.918   6.670
 2221TIP3    H230117   3.687   4.796   6.739
 2222TIP3   OH230118   3.720   4.673   6.867
 2222TIP3    H130119   3.636   4.643   6.901
 2222TIP3    H230120   3.772   4.692   6.945
 2223TIP3   OH230121   3.676   4.981   7.347
 2223TIP3    H130122   3.738   4.915   7.318
 2223TIP3    H230123   3.715   5.064   7.320
 2224TIP3   OH230124   3.498   5.239   7.573
 2224TIP3    H130125   3.429   5.292   7.613
 2224TIP3    H230126   3.468   5.226   7.482
 2225TIP3   OH230127   3.719   4.665   6.464
 2225TIP3    H130128   3.671   4.699   6.388
 2225TIP3    H230129   3.697   4.726   6.535
 2226TIP3   OH230130   3.473   4.560   6.931
 2226TIP3    H130131   3.461   4.469   6.904
 2226TIP3    H230132   3.432   4.565   7.018
 2227TIP3   OH230133   1.947   4.727   7.318
 2227TIP3    H130134   1.961   4.726   7.223
 2227TIP3    H230135   2.034   4.712   7.355
 2228TIP3   OH230136   3.543   4.719   7.892
 2228TIP3    H130137   3.578   4.634   7.920
 2228TIP3    H230138   3.609   4.753   7.832
 2229TIP3   OH230139   3.650   4.484   7.986
 2229TIP3    H130140   3.616   4.395   7.982
 2229TIP3    H230141   3.729   4.477   8.039
 2230TIP3   OH230142   3.441   4.305   6.786
 2230TIP3    H130143   3.452   4.210   6.791
 2230TIP3    H230144   3.516   4.335   6.735
 2231TIP3   OH230145   3.500   4.342   7.272
 2231TIP3    H130146   3.595   4.354   7.262
 2231TIP3    H230147   3.483   4.364   7.363
 2232TIP3   OH230148   3.469   4.435   7.523
 2232TIP3    H130149   3.401   4.482   7.572
 2232TIP3    H230150   3.544   4.494   7.525
 2233TIP3   OH230151   1.936   4.259   7.851
 2233TIP3    H130152   2.010   4.258   7.911
 2233TIP3    H230153   1.871   4.201   7.892
 2234TIP3   OH230154   3.465   4.033   6.801
 2234TIP3    H130155   3.508   3.986   6.873
 2234TIP3    H230156   3.482   3.979   6.724
 2235TIP3   OH230157   2.061   4.100   7.299
 2235TIP3    H130158   2.094   4.018   7.262
 2235TIP3    H230159   2.123   4.166   7.271
 2236TIP3   OH230160   1.894   4.442   7.316
 2236TIP3    H130161   1.961   4.417   7.253
 2236TIP3    H230162   1.904   4.537   7.326
 2237TIP3   OH230163   3.549   4.217   7.961
 2237TIP3    H130164   3.547   4.155   8.033
 2237TIP3    H230165   3.535   4.163   7.883
 2238TIP3   OH230166   1.913   4.054   6.731
 2238TIP3    H130167   1.822   4.052   6.703
 2238TIP3    H230168   1.957   3.992   6.673
 2239TIP3   OH230169   3.389   5.544   6.931
 2239TIP3    H130170   3.455   5.527   6.864
 2239TIP3    H230171   3.438   5.584   7.003
 2240TIP3   OH230172   1.897   3.856   7.550
 2240TIP3    H130173   1.832   3.859   7.620
 2240TIP3    H230174   1.869   3.923   7.488
 2241TIP3   OH230175   2.130   5.246   7.980
 2241TIP3    H130176   2.041   5.257   7.947
 2241TIP3    H230177   2.120   5.202   8.064
 2242TIP3   OH230178   2.446   5.380   7.651
 2242TIP3    H130179   2.421   5.464   7.613
 2242TIP3    H230180   2.533   5.362   7.614
 2243TIP3   OH230181   2.824   5.487   7.892
 2243TIP3    H130182   2.846   5.458   7.981
 2243TIP3    H230183   2.901   5.536   7.863
 2244TIP3   OH230184   3.060   5.624   7.849
 2244TIP3    H130185   3.129   5.587   7.794
 2244TIP3    H230186   3.104   5.644   7.932
 2245TIP3   OH230187   3.450   3.830   7.765
 2245TIP3    H130188   3.436   3.922   7.743
 2245TIP3    H230189   3.540   3.812   7.738
 2246TIP3   OH230190   2.154   5.677   7.619
 2246TIP3    H130191   2.068   5.696   7.583
 2246TIP3    H230192   2.154   5.718   7.705
 2247TIP3   OH230193   2.410   5.626   7.537
 2247TIP3    H130194   2.319   5.644   7.559
 2247TIP3    H230195   2.420   5.656   7.447
 2248TIP3   OH230196   2.863   5.582   7.443
 2248TIP3    H130197   2.818   5.614   7.365
 2248TIP3    H230198   2.878   5.660   7.497
 2249TIP3   OH230199   3.082   5.458   7.558
 2249TIP3    H130200   3.006   5.497   7.516
 2249TIP3    H230201   3.156   5.513   7.531
 2250TIP3   OH230202   3.322   5.595   7.516
 2250TIP3    H130203   3.342   5.687   7.503
 2250TIP3    H230204   3.366   5.550   7.444
 2251TIP3   OH230205   2.130   5.512   7.303
 2251TIP3    H130206   2.113   5.459   7.381
 2251TIP3    H230207   2.207   5.472   7.263
 2252TIP3   OH230208   2.336   5.373   7.198
 2252TIP3    H130209   2.328   5.281   7.222
 2252TIP3    H230210   2.426   5.396   7.218
 2253TIP3   OH230211   2.597   5.400   7.288
 2253TIP3    H130212   2.611   5.313   7.252
 2253TIP3    H230213   2.624   5.393   7.380
 2254TIP3   OH230214   2.868   3.947   7.087
 2254TIP3    H130215   2.815   3.887   7.140
 2254TIP3    H230216   2.959   3.920   7.104
 2255TIP3   OH230217   3.428   3.766   7.163
 2255TIP3    H130218   3.494   3.822   7.121
 2255TIP3    H230219   3.350   3.821   7.167
 2256TIP3   OH230220   3.604   3.906   7.008
 2256TIP3    H130221   3.664   3.839   6.974
 2256TIP3    H230222   3.659   3.983   7.021
 2257TIP3   OH230223   2.143   3.836   6.924
 2257TIP3    H130224   2.050   3.831   6.901
 2257TIP3    H230225   2.179   3.751   6.898
 2258TIP3   OH230226   2.042   3.865   6.559
 2258TIP3    H130227   2.099   3.897   6.489
 2258TIP3    H230228   2.004   3.784   6.523
 2259TIP3   OH230229   2.640   3.787   6.915
 2259TIP3    H130230   2.688   3.840   6.852
 2259TIP3    H230231   2.639   3.839   6.995
 2260TIP3   OH230232   3.153   3.879   7.103
 2260TIP3    H130233   3.179   3.881   7.010
 2260TIP3    H230234   3.123   3.789   7.117
 2261TIP3   OH230235   3.246   3.914   6.567
 2261TIP3    H130236   3.203   3.977   6.625
 2261TIP3    H230237   3.223   3.829   6.603
 2262TIP3   OH230238   2.046   5.455   6.626
 2262TIP3    H130239   1.982   5.432   6.559
 2262TIP3    H230240   2.069   5.546   6.608
 2263TIP3   OH230241   2.248   3.982   6.376
 2263TIP3    H130242   2.310   4.019   6.313
 2263TIP3    H230243   2.270   4.023   6.459
 2264TIP3   OH230244   2.815   4.110   6.548
 2264TIP3    H130245   2.771   4.030   6.576
 2264TIP3    H230246   2.802   4.171   6.621
 2265TIP3   OH230247   3.579   5.491   6.737
 2265TIP3    H130248   3.566   5.401   6.707
 2265TIP3    H230249   3.566   5.545   6.659
 2266TIP3   OH230250   2.137   3.916   7.861
 2266TIP3    H130251   2.074   3.848   7.885
 2266TIP3    H230252   2.214   3.898   7.916
 2267TIP3   OH230253   2.334   3.839   8.038
 2267TIP3    H130254   2.421   3.813   8.007
 2267TIP3    H230255   2.298   3.759   8.078
 2268TIP3   OH230256   3.177   3.764   8.107
 2268TIP3    H130257   3.183   3.722   8.192
 2268TIP3    H230258   3.266   3.762   8.072
 2269TIP3   OH230259   3.488   5.385   7.934
 2269TIP3    H130260   3.434   5.382   7.855
 2269TIP3    H230261   3.492   5.479   7.956
 2270TIP3   OH230262   4.986   4.786   6.930
 2270TIP3    H130263   5.024   4.855   6.984
 2270TIP3    H230264   4.922   4.831   6.875
 2271TIP3   OH230265   4.854   4.690   7.295
 2271TIP3    H130266   4.872   4.656   7.382
 2271TIP3    H230267   4.791   4.629   7.257
 2272TIP3   OH230268   4.087   4.677   7.442
 2272TIP3    H130269   4.167   4.636   7.410
 2272TIP3    H230270   4.107   4.701   7.532
 2273TIP3   OH230271   5.189   4.978   7.129
 2273TIP3    H130272   5.168   4.907   7.189
 2273TIP3    H230273   5.215   5.051   7.185
 2274TIP3   OH230274   4.171   5.108   7.243
 2274TIP3    H130275   4.141   5.022   7.215
 2274TIP3    H230276   4.264   5.096   7.262
 2275TIP3   OH230277   3.853   4.455   6.757
 2275TIP3    H130278   3.809   4.532   6.793
 2275TIP3    H230279   3.798   4.427   6.684
 2276TIP3   OH230280   3.909   4.698   7.074
 2276TIP3    H130281   3.942   4.610   7.089
 2276TIP3    H230282   3.986   4.755   7.085
 2277TIP3   OH230283   4.928   5.489   7.137
 2277TIP3    H130284   4.985   5.436   7.082
 2277TIP3    H230285   4.914   5.436   7.215
 2278TIP3   OH230286   4.683   4.938   7.319
 2278TIP3    H130287   4.734   4.872   7.271
 2278TIP3    H230288   4.744   4.972   7.385
 2279TIP3   OH230289   5.568   4.059   7.406
 2279TIP3    H130290   5.564   4.130   7.470
 2279TIP3    H230291   5.634   4.088   7.343
 2280TIP3   OH230292   5.019   4.367   7.319
 2280TIP3    H130293   5.028   4.273   7.335
 2280TIP3    H230294   4.979   4.373   7.232
 2281TIP3   OH230295   4.342   4.166   7.069
 2281TIP3    H130296   4.356   4.246   7.018
 2281TIP3    H230297   4.289   4.110   7.013
 2282TIP3   OH230298   3.997   4.442   7.135
 2282TIP3    H130299   4.062   4.396   7.189
 2282TIP3    H230300   4.012   4.408   7.046
 2283TIP3   OH230301   4.555   4.546   6.962
 2283TIP3    H130302   4.600   4.530   7.045
 2283TIP3    H230303   4.482   4.484   6.962
 2284TIP3   OH230304   5.558   4.241   7.615
 2284TIP3    H130305   5.507   4.321   7.601
 2284TIP3    H230306   5.612   4.259   7.691
 2285TIP3   OH230307   4.853   5.026   6.838
 2285TIP3    H130308   4.869   5.018   6.744
 2285TIP3    H230309   4.842   5.120   6.853
 2286TIP3   OH230310   4.450   4.857   7.446
 2286TIP3    H130311   4.402   4.934   7.477
 2286TIP3    H230312   4.525   4.893   7.399
 2287TIP3   OH230313   5.255   4.080   7.129
 2287TIP3    H130314   5.235   4.149   7.193
 2287TIP3    H230315   5.342   4.104   7.096
 2288TIP3   OH230316   4.176   4.273   7.265
 2288TIP3    H130317   4.236   4.315   7.326
 2288TIP3    H230318   4.233   4.229   7.201
 2289TIP3   OH230319   4.318   5.077   7.554
 2289TIP3    H130320   4.335   5.171   7.555
 2289TIP3    H230321   4.230   5.068   7.591
 2290TIP3   OH230322   3.895   5.024   6.666
 2290TIP3    H130323   3.888   5.068   6.581
 2290TIP3    H230324   3.910   5.095   6.728
 2291TIP3   OH230325   5.252   5.184   7.322
 2291TIP3    H130326   5.160   5.192   7.347
 2291TIP3    H230327   5.276   5.273   7.293
 2292TIP3   OH230328   5.281   3.969   7.460
 2292TIP3    H130329   5.211   4.018   7.416
 2292TIP3    H230330   5.361   4.003   7.422
 2293TIP3   OH230331   4.580   3.788   7.192
 2293TIP3    H130332   4.575   3.694   7.206
 2293TIP3    H230333   4.514   3.825   7.252
 2294TIP3   OH230334   5.092   5.370   6.955
 2294TIP3    H130335   5.117   5.281   6.932
 2294TIP3    H230336   5.174   5.419   6.952
 2295TIP3   OH230337   5.186   5.122   6.891
 2295TIP3    H130338   5.205   5.065   6.816
 2295TIP3    H230339   5.190   5.063   6.966
 2296TIP3   OH230340   5.381   4.979   7.698
 2296TIP3    H130341   5.369   4.930   7.617
 2296TIP3    H230342   5.374   5.071   7.671
 2297TIP3   OH230343   4.775   4.693   6.667
 2297TIP3    H130344   4.731   4.775   6.645
 2297TIP3    H230345   4.856   4.696   6.616
 2298TIP3   OH230346   5.546   4.679   7.531
 2298TIP3    H130347   5.472   4.738   7.516
 2298TIP3    H230348   5.603   4.693   7.455
 2299TIP3   OH230349   5.173   4.625   6.805
 2299TIP3    H130350   5.117   4.688   6.850
 2299TIP3    H230351   5.261   4.643   6.838
 2300TIP3   OH230352   5.153   4.564   7.694
 2300TIP3    H130353   5.150   4.649   7.738
 2300TIP3    H230354   5.084   4.568   7.628
 2301TIP3   OH230355   4.346   4.730   7.011
 2301TIP3    H130356   4.288   4.716   6.936
 2301TIP3    H230357   4.426   4.683   6.989
 2302TIP3   OH230358   4.447   5.071   7.221
 2302TIP3    H130359   4.460   5.114   7.136
 2302TIP3    H230360   4.535   5.043   7.247
 2303TIP3   OH230361   4.344   4.650   7.300
 2303TIP3    H130362   4.364   4.671   7.208
 2303TIP3    H230363   4.386   4.720   7.349
 2304TIP3   OH230364   4.999   5.206   7.420
 2304TIP3    H130365   4.988   5.281   7.479
 2304TIP3    H230366   4.952   5.135   7.463
 2305TIP3   OH230367   4.398   5.025   7.819
 2305TIP3    H130368   4.364   5.105   7.859
 2305TIP3    H230369   4.397   5.043   7.725
 2306TIP3   OH230370   5.031   4.666   6.574
 2306TIP3    H130371   5.093   4.676   6.645
 2306TIP3    H230372   5.073   4.709   6.499
 2307TIP3   OH230373   4.172   4.739   7.706
 2307TIP3    H130374   4.219   4.821   7.697
 2307TIP3    H230375   4.123   4.748   7.788
 2308TIP3   OH230376   4.797   5.329   6.850
 2308TIP3    H130377   4.859   5.372   6.910
 2308TIP3    H230378   4.763   5.401   6.796
 2309TIP3   OH230379   4.267   5.259   7.892
 2309TIP3    H130380   4.272   5.299   7.805
 2309TIP3    H230381   4.173   5.255   7.910
 2310TIP3   OH230382   4.176   4.688   6.794
 2310TIP3    H130383   4.123   4.764   6.767
 2310TIP3    H230384   4.122   4.613   6.772
 2311TIP3   OH230385   3.847   4.925   7.616
 2311TIP3    H130386   3.815   4.917   7.526
 2311TIP3    H230387   3.837   4.837   7.653
 2312TIP3   OH230388   3.856   5.197   7.292
 2312TIP3    H130389   3.948   5.174   7.276
 2312TIP3    H230390   3.859   5.258   7.365
 2313TIP3   OH230391   5.640   5.307   7.895
 2313TIP3    H130392   5.631   5.212   7.881
 2313TIP3    H230393   5.556   5.333   7.932
 2314TIP3   OH230394   4.599   5.330   7.734
 2314TIP3    H130395   4.630   5.401   7.790
 2314TIP3    H230396   4.642   5.252   7.768
 2315TIP3   OH230397   4.744   5.572   6.699
 2315TIP3    H130398   4.691   5.579   6.620
 2315TIP3    H230399   4.735   5.657   6.743
 2316TIP3   OH230400   4.120   5.465   6.920
 2316TIP3    H130401   4.154   5.435   7.004
 2316TIP3    H230402   4.070   5.390   6.886
 2317TIP3   OH230403   5.018   5.552   6.743
 2317TIP3    H130404   4.926   5.548   6.718
 2317TIP3    H230405   5.034   5.469   6.788
 2318TIP3   OH230406   5.339   4.407   7.911
 2318TIP3    H130407   5.273   4.457   7.862
 2318TIP3    H230408   5.331   4.318   7.877
 2319TIP3   OH230409   4.082   5.051   7.687
 2319TIP3    H130410   4.092   5.023   7.778
 2319TIP3    H230411   3.998   5.013   7.659
 2320TIP3   OH230412   4.805   3.871   7.654
 2320TIP3    H130413   4.847   3.829   7.729
 2320TIP3    H230414   4.711   3.864   7.673
 2321TIP3   OH230415   5.094   4.283   7.729
 2321TIP3    H130416   5.026   4.266   7.794
 2321TIP3    H230417   5.094   4.378   7.718
 2322TIP3   OH230418   5.193   4.792   6.397
 2322TIP3    H130419   5.256   4.768   6.329
 2322TIP3    H230420   5.210   4.884   6.414
 2323TIP3   OH230421   4.683   4.118   6.347
 2323TIP3    H130422   4.650   4.106   6.436
 2323TIP3    H230423   4.772   4.153   6.358
 2324TIP3   OH230424   4.354   4.408   7.427
 2324TIP3    H130425   4.347   4.442   7.516
 2324TIP3    H230426   4.357   4.486   7.372
 2325TIP3   OH230427   4.337   4.389   6.905
 2325TIP3    H130428   4.242   4.383   6.900
 2325TIP3    H230429   4.365   4.397   6.813
 2326TIP3   OH230430   4.903   4.444   6.751
 2326TIP3    H130431   4.930   4.535   6.736
 2326TIP3    H230432   4.958   4.393   6.691
 2327TIP3   OH230433   4.793   4.461   7.904
 2327TIP3    H130434   4.753   4.390   7.955
 2327TIP3    H230435   4.864   4.493   7.959
 2328TIP3   OH230436   4.935   4.426   7.061
 2328TIP3    H130437   4.954   4.518   7.042
 2328TIP3    H230438   4.969   4.378   6.986
 2329TIP3   OH230439   3.760   4.122   7.030
 2329TIP3    H130440   3.835   4.135   7.088
 2329TIP3    H230441   3.797   4.126   6.942
 2330TIP3   OH230442   3.908   4.222   6.540
 2330TIP3    H130443   3.972   4.264   6.482
 2330TIP3    H230444   3.829   4.274   6.531
 2331TIP3   OH230445   4.941   4.541   7.517
 2331TIP3    H130446   4.971   4.477   7.452
 2331TIP3    H230447   4.870   4.495   7.563
 2332TIP3   OH230448   4.635   4.148   7.057
 2332TIP3    H130449   4.543   4.135   7.079
 2332TIP3    H230450   4.683   4.094   7.119
 2333TIP3   OH230451   4.066   4.336   6.887
 2333TIP3    H130452   3.990   4.362   6.834
 2333TIP3    H230453   4.076   4.242   6.871
 2334TIP3   OH230454   4.475   4.409   6.649
 2334TIP3    H130455   4.507   4.319   6.646
 2334TIP3    H230456   4.422   4.418   6.570
 2335TIP3   OH230457   5.025   4.090   7.345
 2335TIP3    H130458   4.974   4.097   7.426
 2335TIP3    H230459   4.968   4.042   7.285
 2336TIP3   OH230460   4.318   4.445   6.423
 2336TIP3    H130461   4.229   4.424   6.395
 2336TIP3    H230462   4.328   4.538   6.401
 2337TIP3   OH230463   5.374   5.656   7.993
 2337TIP3    H130464   5.396   5.689   7.906
 2337TIP3    H230465   5.439   5.697   8.051
 2338TIP3   OH230466   4.095   4.903   7.933
 2338TIP3    H130467   4.170   4.905   7.992
 2338TIP3    H230468   4.021   4.930   7.987
 2339TIP3   OH230469   4.693   4.473   7.194
 2339TIP3    H130470   4.770   4.436   7.150
 2339TIP3    H230471   4.670   4.408   7.261
 2340TIP3   OH230472   4.163   4.068   6.873
 2340TIP3    H130473   4.108   3.995   6.902
 2340TIP3    H230474   4.214   4.032   6.801
 2341TIP3   OH230475   4.618   4.316   7.416
 2341TIP3    H130476   4.532   4.358   7.425
 2341TIP3    H230477   4.667   4.346   7.493
 2342TIP3   OH230478   4.586   4.884   6.632
 2342TIP3    H130479   4.509   4.843   6.592
 2342TIP3    H230480   4.555   4.913   6.717
 2343TIP3   OH230481   5.344   4.849   7.460
 2343TIP3    H130482   5.396   4.910   7.407
 2343TIP3    H230483   5.268   4.828   7.406
 2344TIP3   OH230484   4.903   4.265   6.416
 2344TIP3    H130485   4.880   4.353   6.386
 2344TIP3    H230486   4.992   4.274   6.452
 2345TIP3   OH230487   4.781   4.831   7.747
 2345TIP3    H130488   4.821   4.784   7.820
 2345TIP3    H230489   4.765   4.919   7.781
 2346TIP3   OH230490   5.115   4.396   6.577
 2346TIP3    H130491   5.172   4.432   6.645
 2346TIP3    H230492   5.084   4.473   6.529
 2347TIP3   OH230493   4.137   4.831   7.171
 2347TIP3    H130494   4.213   4.811   7.118
 2347TIP3    H230495   4.154   4.790   7.256
 2348TIP3   OH230496   4.903   5.013   6.566
 2348TIP3    H130497   4.894   5.099   6.525
 2348TIP3    H230498   4.974   4.970   6.517
 2349TIP3   OH230499   3.806   4.695   7.759
 2349TIP3    H130500   3.872   4.665   7.821
 2349TIP3    H230501   3.789   4.618   7.704
 2350TIP3   OH230502   4.576   4.629   7.915
 2350TIP3    H130503   4.556   4.654   7.824
 2350TIP3    H230504   4.660   4.584   7.910
 2351TIP3   OH230505   5.044   5.168   7.739
 2351TIP3    H130506   4.952   5.152   7.759
 2351TIP3    H230507   5.072   5.233   7.803
 2352TIP3   OH230508   5.610   5.031   7.846
 2352TIP3    H130509   5.519   5.023   7.819
 2352TIP3    H230510   5.661   5.002   7.770
 2353TIP3   OH230511   5.133   4.760   7.292
 2353TIP3    H130512   5.038   4.748   7.286
 2353TIP3    H230513   5.170   4.682   7.252
 2354TIP3   OH230514   4.402   5.197   6.976
 2354TIP3    H130515   4.426   5.274   6.925
 2354TIP3    H230516   4.315   5.216   7.009
 2355TIP3   OH230517   3.979   4.641   6.376
 2355TIP3    H130518   4.021   4.714   6.422
 2355TIP3    H230519   3.888   4.643   6.405
 2356TIP3   OH230520   4.451   4.951   6.859
 2356TIP3    H130521   4.453   5.038   6.899
 2356TIP3    H230522   4.424   4.893   6.931
 2357TIP3   OH230523   4.601   5.405   7.465
 2357TIP3    H130524   4.670   5.472   7.460
 2357TIP3    H230525   4.605   5.373   7.555
 2358TIP3   OH230526   4.391   5.435   6.845
 2358TIP3    H130527   4.302   5.470   6.850
 2358TIP3    H230528   4.447   5.511   6.862
 2359TIP3   OH230529   4.889   4.953   7.511
 2359TIP3    H130530   4.853   4.915   7.592
 2359TIP3    H230531   4.972   4.909   7.499
 2360TIP3   OH230532   5.207   5.420   7.718
 2360TIP3    H130533   5.120   5.397   7.685
 2360TIP3    H230534   5.234   5.495   7.664
 2361TIP3   OH230535   5.254   4.947   6.683
 2361TIP3    H130536   5.334   4.900   6.657
 2361TIP3    H230537   5.230   4.997   6.605
 2362TIP3   OH230538   3.993   5.357   7.508
 2362TIP3    H130539   4.040   5.284   7.549
 2362TIP3    H230540   4.002   5.429   7.570
 2363TIP3   OH230541   4.896   4.123   7.586
 2363TIP3    H130542   4.965   4.148   7.648
 2363TIP3    H230543   4.865   4.038   7.618
 2364TIP3   OH230544   4.686   4.289   6.829
 2364TIP3    H130545   4.781   4.299   6.831
 2364TIP3    H230546   4.665   4.239   6.907
 2365TIP3   OH230547   4.763   4.370   7.644
 2365TIP3    H130548   4.770   4.402   7.734
 2365TIP3    H230549   4.805   4.284   7.645
 2366TIP3   OH230550   4.698   3.939   6.818
 2366TIP3    H130551   4.748   3.982   6.888
 2366TIP3    H230552   4.757   3.871   6.786
 2367TIP3   OH230553   5.335   4.159   7.770
 2367TIP3    H130554   5.246   4.181   7.744
 2367TIP3    H230555   5.386   4.163   7.690
 2368TIP3   OH230556   5.228   4.507   7.198
 2368TIP3    H130557   5.151   4.468   7.240
 2368TIP3    H230558   5.302   4.457   7.232
 2369TIP3   OH230559   4.050   4.379   6.347
 2369TIP3    H130560   4.021   4.469   6.357
 2369TIP3    H230561   3.998   4.344   6.275
 2370TIP3   OH230562   5.336   5.453   7.299
 2370TIP3    H130563   5.318   5.527   7.241
 2370TIP3    H230564   5.431   5.456   7.313
 2371TIP3   OH230565   3.940   5.255   6.828
 2371TIP3    H130566   3.889   5.286   6.903
 2371TIP3    H230567   3.921   5.318   6.759
 2372TIP3   OH230568   3.918   5.575   7.990
 2372TIP3    H130569   3.983   5.556   8.058
 2372TIP3    H230570   3.893   5.489   7.956
 2373TIP3   OH230571   4.340   5.367   8.135
 2373TIP3    H130572   4.424   5.327   8.156
 2373TIP3    H230573   4.317   5.332   8.049
 2374TIP3   OH230574   4.997   5.308   7.989
 2374TIP3    H130575   4.948   5.227   7.975
 2374TIP3    H230576   5.062   5.285   8.056
 2375TIP3   OH230577   3.853   4.945   8.071
 2375TIP3    H130578   3.833   4.852   8.082
 2375TIP3    H230579   3.801   4.972   7.996
 2376TIP3   OH230580   4.520   4.885   8.022
 2376TIP3    H130581   4.503   4.940   7.946
 2376TIP3    H230582   4.558   4.805   7.985
 2377TIP3   OH230583   5.120   4.895   7.753
 2377TIP3    H130584   5.207   4.930   7.737
 2377TIP3    H230585   5.062   4.972   7.751
 2378TIP3   OH230586   3.981   4.602   7.955
 2378TIP3    H130587   4.005   4.519   7.997
 2378TIP3    H230588   3.999   4.669   8.021
 2379TIP3   OH230589   4.421   4.715   6.478
 2379TIP3    H130590   4.438   4.650   6.546
 2379TIP3    H230591   4.500   4.714   6.423
 2380TIP3   OH230592   4.351   4.528   7.671
 2380TIP3    H130593   4.284   4.591   7.696
 2380TIP3    H230594   4.431   4.580   7.662
 2381TIP3   OH230595   4.885   4.727   7.995
 2381TIP3    H130596   4.979   4.741   8.006
 2381TIP3    H230597   4.849   4.736   8.084
 2382TIP3   OH230598   4.436   4.298   7.807
 2382TIP3    H130599   4.449   4.234   7.737
 2382TIP3    H230600   4.416   4.379   7.762
 2383TIP3   OH230601   4.469   4.127   7.573
 2383TIP3    H130602   4.548   4.162   7.532
 2383TIP3    H230603   4.399   4.148   7.511
 2384TIP3   OH230604   4.565   4.695   7.639
 2384TIP3    H130605   4.647   4.737   7.666
 2384TIP3    H230606   4.529   4.752   7.572
 2385TIP3   OH230607   4.996   4.430   8.121
 2385TIP3    H130608   5.007   4.346   8.166
 2385TIP3    H230609   5.085   4.461   8.106
 2386TIP3   OH230610   5.170   4.739   7.968
 2386TIP3    H130611   5.136   4.801   7.903
 2386TIP3    H230612   5.263   4.730   7.947
 2387TIP3   OH230613   4.273   4.333   8.033
 2387TIP3    H130614   4.185   4.316   7.999
 2387TIP3    H230615   4.329   4.333   7.956
 2388TIP3   OH230616   4.523   3.866   7.666
 2388TIP3    H130617   4.502   3.955   7.641
 2388TIP3    H230618   4.463   3.812   7.615
 2389TIP3   OH230619   4.637   4.251   7.997
 2389TIP3    H130620   4.584   4.224   8.072
 2389TIP3    H230621   4.573   4.270   7.928
 2390TIP3   OH230622   4.893   4.182   7.885
 2390TIP3    H130623   4.808   4.195   7.927
 2390TIP3    H230624   4.942   4.128   7.947
 2391TIP3   OH230625   5.026   4.039   8.072
 2391TIP3    H130626   5.051   3.949   8.090
 2391TIP3    H230627   5.032   4.083   8.157
 2392TIP3   OH230628   4.513   3.785   7.930
 2392TIP3    H130629   4.562   3.703   7.924
 2392TIP3    H230630   4.514   3.820   7.842
 2393TIP3   OH230631   4.548   3.917   8.176
 2393TIP3    H130632   4.539   3.870   8.093
 2393TIP3    H230633   4.505   4.001   8.162
 2394TIP3   OH230634   4.600   5.662   6.477
 2394TIP3    H130635   4.618   5.606   6.402
 2394TIP3    H230636   4.563   5.742   6.438
 2395TIP3   OH230637   3.881   5.093   6.387
 2395TIP3    H130638   3.939   5.139   6.326
 2395TIP3    H230639   3.849   5.017   6.339
 2396TIP3   OH230640   3.779   5.597   6.890
 2396TIP3    H130641   3.713   5.562   6.831
 2396TIP3    H230642   3.799   5.525   6.950
 2397TIP3   OH230643   3.841   5.388   7.065
 2397TIP3    H130644   3.801   5.320   7.119
 2397TIP3    H230645   3.895   5.438   7.125
 2398TIP3   OH230646   5.601   5.479   7.382
 2398TIP3    H130647   5.588   5.470   7.477
 2398TIP3    H230648   5.646   5.563   7.372
 2399TIP3   OH230649   5.541   5.431   7.650
 2399TIP3    H130650   5.484   5.359   7.626
 2399TIP3    H230651   5.589   5.400   7.726
 2400TIP3   OH230652   5.437   5.042   8.187
 2400TIP3    H130653   5.351   5.060   8.223
 2400TIP3    H230654   5.484   5.126   8.193
 2401TIP3   OH230655   5.564   4.817   6.626
 2401TIP3    H130656   5.627   4.888   6.627
 2401TIP3    H230657   5.570   4.778   6.713
 2402TIP3   OH230658   5.586   4.680   6.869
 2402TIP3    H130659   5.514   4.627   6.903
 2402TIP3    H230660   5.643   4.694   6.945
 2403TIP3   OH230661   5.591   4.973   7.379
 2403TIP3    H130662   5.632   4.914   7.316
 2403TIP3    H230663   5.611   5.061   7.347
 2404TIP3   OH230664   5.361   5.228   7.582
 2404TIP3    H130665   5.291   5.280   7.622
 2404TIP3    H230666   5.331   5.213   7.492
 2405TIP3   OH230667   5.643   4.628   6.418
 2405TIP3    H130668   5.591   4.627   6.337
 2405TIP3    H230669   5.600   4.694   6.472
 2406TIP3   OH230670   5.394   4.501   6.955
 2406TIP3    H130671   5.362   4.431   6.897
 2406TIP3    H230672   5.330   4.504   7.026
 2407TIP3   OH230673   3.846   4.760   7.336
 2407TIP3    H130674   3.856   4.745   7.242
 2407TIP3    H230675   3.931   4.738   7.373
 2408TIP3   OH230676   5.434   4.743   7.886
 2408TIP3    H130677   5.497   4.675   7.863
 2408TIP3    H230678   5.443   4.809   7.817
 2409TIP3   OH230679   5.590   4.512   7.867
 2409TIP3    H130680   5.504   4.475   7.887
 2409TIP3    H230681   5.651   4.438   7.879
 2410TIP3   OH230682   5.336   4.288   6.776
 2410TIP3    H130683   5.289   4.210   6.806
 2410TIP3    H230684   5.335   4.282   6.680
 2411TIP3   OH230685   5.405   4.340   7.323
 2411TIP3    H130686   5.498   4.357   7.309
 2411TIP3    H230687   5.389   4.365   7.413
 2412TIP3   OH230688   5.390   4.456   7.578
 2412TIP3    H130689   5.308   4.490   7.613
 2412TIP3    H230690   5.444   4.533   7.565
 2413TIP3   OH230691   5.611   3.866   8.089
 2413TIP3    H130692   5.668   3.802   8.046
 2413TIP3    H230693   5.603   3.937   8.026
 2414TIP3   OH230694   3.945   4.118   7.236
 2414TIP3    H130695   3.989   4.039   7.267
 2414TIP3    H230696   4.010   4.188   7.248
 2415TIP3   OH230697   3.767   4.407   7.300
 2415TIP3    H130698   3.842   4.416   7.240
 2415TIP3    H230699   3.774   4.482   7.358
 2416TIP3   OH230700   5.519   4.093   7.960
 2416TIP3    H130701   5.467   4.107   8.039
 2416TIP3    H230702   5.456   4.099   7.889
 2417TIP3   OH230703   3.817   4.086   6.759
 2417TIP3    H130704   3.744   4.046   6.714
 2417TIP3    H230705   3.863   4.136   6.691
 2418TIP3   OH230706   5.325   5.518   6.925
 2418TIP3    H130707   5.373   5.492   6.846
 2418TIP3    H230708   5.358   5.605   6.946
 2419TIP3   OH230709   4.007   5.244   7.973
 2419TIP3    H130710   3.914   5.252   7.953
 2419TIP3    H230711   4.010   5.212   8.063
 2420TIP3   OH230712   4.336   5.347   7.636
 2420TIP3    H130713   4.330   5.433   7.594
 2420TIP3    H230714   4.426   5.343   7.669
 2421TIP3   OH230715   4.711   5.520   7.905
 2421TIP3    H130716   4.732   5.481   7.990
 2421TIP3    H230717   4.794   5.557   7.874
 2422TIP3   OH230718   4.957   5.624   7.835
 2422TIP3    H130719   5.016   5.564   7.789
 2422TIP3    H230720   5.000   5.640   7.919
 2423TIP3   OH230721   5.452   3.813   7.729
 2423TIP3    H130722   5.383   3.843   7.670
 2423TIP3    H230723   5.472   3.724   7.699
 2424TIP3   OH230724   4.037   5.649   7.607
 2424TIP3    H130725   3.954   5.683   7.574
 2424TIP3    H230726   4.050   5.695   7.690
 2425TIP3   OH230727   4.305   5.608   7.536
 2425TIP3    H130728   4.212   5.622   7.555
 2425TIP3    H230729   4.320   5.653   7.453
 2426TIP3   OH230730   4.789   5.605   7.428
 2426TIP3    H130731   4.771   5.653   7.348
 2426TIP3    H230732   4.793   5.673   7.496
 2427TIP3   OH230733   4.996   5.461   7.542
 2427TIP3    H130734   4.917   5.502   7.507
 2427TIP3    H230735   5.067   5.521   7.519
 2428TIP3   OH230736   5.240   5.604   7.514
 2428TIP3    H130737   5.250   5.697   7.492
 2428TIP3    H230738   5.271   5.558   7.437
 2429TIP3   OH230739   4.001   5.500   7.272
 2429TIP3    H130740   3.999   5.457   7.358
 2429TIP3    H230741   4.080   5.466   7.230
 2430TIP3   OH230742   4.215   5.370   7.161
 2430TIP3    H130743   4.204   5.283   7.200
 2430TIP3    H230744   4.304   5.395   7.184
 2431TIP3   OH230745   4.479   5.427   7.224
 2431TIP3    H130746   4.541   5.378   7.169
 2431TIP3    H230747   4.511   5.414   7.313
 2432TIP3   OH230748   4.828   3.945   7.165
 2432TIP3    H130749   4.760   3.878   7.170
 2432TIP3    H230750   4.891   3.912   7.101
 2433TIP3   OH230751   5.320   3.802   7.147
 2433TIP3    H130752   5.397   3.847   7.111
 2433TIP3    H230753   5.254   3.871   7.156
 2434TIP3   OH230754   5.520   3.925   7.010
 2434TIP3    H130755   5.568   3.862   6.956
 2434TIP3    H230756   5.572   4.005   7.006
 2435TIP3   OH230757   4.026   3.839   6.928
 2435TIP3    H130758   3.936   3.826   6.897
 2435TIP3    H230759   4.069   3.755   6.911
 2436TIP3   OH230760   3.935   3.833   6.567
 2436TIP3    H130761   3.979   3.824   6.483
 2436TIP3    H230762   3.928   3.928   6.579
 2437TIP3   OH230763   4.475   3.835   6.936
 2437TIP3    H130764   4.543   3.878   6.884
 2437TIP3    H230765   4.515   3.821   7.022
 2438TIP3   OH230766   3.902   5.448   6.643
 2438TIP3    H130767   3.849   5.462   6.564
 2438TIP3    H230768   3.909   5.534   6.683
 2439TIP3   OH230769   4.601   4.128   6.615
 2439TIP3    H130770   4.610   4.040   6.651
 2439TIP3    H230771   4.656   4.182   6.672
 2440TIP3   OH230772   5.495   5.474   6.699
 2440TIP3    H130773   5.469   5.400   6.643
 2440TIP3    H230774   5.473   5.551   6.646
 2441TIP3   OH230775   4.260   3.825   8.044
 2441TIP3    H130776   4.342   3.816   7.996
 2441TIP3    H230777   4.256   3.749   8.101
 2442TIP3   OH230778   4.106   5.543   6.349
 2442TIP3    H130779   4.076   5.585   6.430
 2442TIP3    H230780   4.201   5.554   6.352
 2443TIP3   OH230781   5.100   3.771   8.094
 2443TIP3    H130782   5.099   3.722   8.177
 2443TIP3    H230783   5.191   3.767   8.065
 2444TIP3   OH230784   5.376   5.387   7.941
 2444TIP3    H130785   5.314   5.385   7.869
 2444TIP3    H230786   5.377   5.478   7.970
 2445TIP3   OH230787   6.854   4.781   6.927
 2445TIP3    H130788   6.839   4.875   6.920
 2445TIP3    H230789   6.800   4.743   6.858
 2446TIP3   OH230790   6.728   4.681   7.306
 2446TIP3    H130791   6.760   4.632   7.381
 2446TIP3    H230792   6.674   4.619   7.258
 2447TIP3   OH230793   5.973   4.668   7.430
 2447TIP3    H130794   5.974   4.577   7.461
 2447TIP3    H230795   6.004   4.719   7.504
 2448TIP3   OH230796   7.121   4.997   7.130
 2448TIP3    H130797   7.066   4.934   7.178
 2448TIP3    H230798   7.139   5.066   7.193
 2449TIP3   OH230799   6.112   5.120   7.277
 2449TIP3    H130800   6.076   5.035   7.252
 2449TIP3    H230801   6.205   5.116   7.252
 2450TIP3   OH230802   5.693   4.415   6.815
 2450TIP3    H130803   5.695   4.507   6.791
 2450TIP3    H230804   5.601   4.396   6.833
 2451TIP3   OH230805   5.792   4.681   7.061
 2451TIP3    H130806   5.828   4.594   7.080
 2451TIP3    H230807   5.860   4.725   7.010
 2452TIP3   OH230808   6.809   5.487   7.131
 2452TIP3    H130809   6.872   5.439   7.077
 2452TIP3    H230810   6.756   5.419   7.172
 2453TIP3   OH230811   6.570   4.928   7.330
 2453TIP3    H130812   6.611   4.855   7.284
 2453TIP3    H230813   6.637   4.959   7.391
 2454TIP3   OH230814   7.421   4.099   7.393
 2454TIP3    H130815   7.440   4.148   7.473
 2454TIP3    H230816   7.454   4.155   7.322
 2455TIP3   OH230817   6.876   4.373   7.337
 2455TIP3    H130818   6.899   4.280   7.344
 2455TIP3    H230819   6.858   4.386   7.244
 2456TIP3   OH230820   6.219   4.171   7.042
 2456TIP3    H130821   6.223   4.257   7.001
 2456TIP3    H230822   6.159   4.121   6.987
 2457TIP3   OH230823   6.973   4.171   6.894
 2457TIP3    H130824   7.012   4.165   6.981
 2457TIP3    H230825   7.037   4.219   6.842
 2458TIP3   OH230826   5.886   4.429   7.140
 2458TIP3    H130827   5.948   4.382   7.196
 2458TIP3    H230828   5.905   4.397   7.051
 2459TIP3   OH230829   6.350   4.570   7.085
 2459TIP3    H130830   6.436   4.536   7.109
 2459TIP3    H230831   6.316   4.507   7.021
 2460TIP3   OH230832   7.444   4.229   7.631
 2460TIP3    H130833   7.393   4.310   7.619
 2460TIP3    H230834   7.488   4.241   7.714
 2461TIP3   OH230835   6.099   4.097   7.494
 2461TIP3    H130836   6.069   4.152   7.422
 2461TIP3    H230837   6.030   4.105   7.560
 2462TIP3   OH230838   6.814   5.051   6.839
 2462TIP3    H130839   6.794   5.038   6.747
 2462TIP3    H230840   6.768   5.132   6.863
 2463TIP3   OH230841   6.374   4.848   7.509
 2463TIP3    H130842   6.305   4.913   7.526
 2463TIP3    H230843   6.432   4.890   7.446
 2464TIP3   OH230844   7.098   4.174   7.139
 2464TIP3    H130845   7.042   4.147   7.212
 2464TIP3    H230846   7.167   4.227   7.180
 2465TIP3   OH230847   6.065   4.249   7.262
 2465TIP3    H130848   6.126   4.302   7.313
 2465TIP3    H230849   6.118   4.214   7.190
 2466TIP3   OH230850   6.188   5.052   7.543
 2466TIP3    H130851   6.169   5.093   7.459
 2466TIP3    H230852   6.108   5.061   7.593
 2467TIP3   OH230853   5.787   5.014   6.615
 2467TIP3    H130854   5.782   5.043   6.524
 2467TIP3    H230855   5.798   5.095   6.665
 2468TIP3   OH230856   7.163   5.196   7.327
 2468TIP3    H130857   7.070   5.203   7.351
 2468TIP3    H230858   7.187   5.286   7.302
 2469TIP3   OH230859   7.171   3.988   7.452
 2469TIP3    H130860   7.101   4.044   7.418
 2469TIP3    H230861   7.252   4.030   7.423
 2470TIP3   OH230862   6.442   3.790   7.236
 2470TIP3    H130863   6.410   3.700   7.244
 2470TIP3    H230864   6.368   3.844   7.263
 2471TIP3   OH230865   6.986   5.346   6.977
 2471TIP3    H130866   7.018   5.263   6.942
 2471TIP3    H230867   7.062   5.404   6.974
 2472TIP3   OH230868   7.086   5.098   6.875
 2472TIP3    H130869   6.995   5.076   6.853
 2472TIP3    H230870   7.099   5.059   6.961
 2473TIP3   OH230871   7.215   4.983   7.692
 2473TIP3    H130872   7.219   4.938   7.607
 2473TIP3    H230873   7.224   5.076   7.670
 2474TIP3   OH230874   6.724   4.678   6.703
 2474TIP3    H130875   6.656   4.740   6.678
 2474TIP3    H230876   6.797   4.698   6.644
 2475TIP3   OH230877   7.397   4.668   7.507
 2475TIP3    H130878   7.330   4.732   7.485
 2475TIP3    H230879   7.455   4.667   7.431
 2476TIP3   OH230880   7.106   4.748   6.809
 2476TIP3    H130881   7.030   4.768   6.863
 2476TIP3    H230882   7.148   4.674   6.853
 2477TIP3   OH230883   7.043   4.549   7.705
 2477TIP3    H130884   7.063   4.639   7.727
 2477TIP3    H230885   6.968   4.555   7.645
 2478TIP3   OH230886   6.175   4.758   6.974
 2478TIP3    H130887   6.147   4.726   6.888
 2478TIP3    H230888   6.242   4.696   7.002
 2479TIP3   OH230889   6.380   5.124   7.215
 2479TIP3    H130890   6.370   5.130   7.120
 2479TIP3    H230891   6.449   5.059   7.228
 2480TIP3   OH230892   6.290   4.630   7.354
 2480TIP3    H130893   6.306   4.633   7.260
 2480TIP3    H230894   6.309   4.718   7.385
 2481TIP3   OH230895   6.910   5.215   7.421
 2481TIP3    H130896   6.887   5.300   7.458
 2481TIP3    H230897   6.832   5.161   7.433
 2482TIP3   OH230898   6.342   5.100   7.770
 2482TIP3    H130899   6.285   5.159   7.819
 2482TIP3    H230900   6.298   5.087   7.686
 2483TIP3   OH230901   6.973   4.681   6.577
 2483TIP3    H130902   7.025   4.709   6.651
 2483TIP3    H230903   7.008   4.731   6.503
 2484TIP3   OH230904   6.027   4.727   7.714
 2484TIP3    H130905   6.031   4.796   7.781
 2484TIP3    H230906   5.936   4.698   7.714
 2485TIP3   OH230907   6.688   5.302   6.876
 2485TIP3    H130908   6.717   5.365   6.942
 2485TIP3    H230909   6.659   5.356   6.802
 2486TIP3   OH230910   6.165   5.272   7.890
 2486TIP3    H130911   6.165   5.317   7.805
 2486TIP3    H230912   6.072   5.256   7.908
 2487TIP3   OH230913   7.299   3.871   6.473
 2487TIP3    H130914   7.231   3.833   6.527
 2487TIP3    H230915   7.265   3.956   6.445
 2488TIP3   OH230916   6.086   4.672   6.723
 2488TIP3    H130917   6.078   4.760   6.687
 2488TIP3    H230918   6.037   4.616   6.662
 2489TIP3   OH230919   5.730   4.929   7.620
 2489TIP3    H130920   5.679   4.945   7.541
 2489TIP3    H230921   5.741   4.834   7.624
 2490TIP3   OH230922   5.698   5.226   7.306
 2490TIP3    H130923   5.781   5.232   7.355
 2490TIP3    H230924   5.651   5.306   7.330
 2491TIP3   OH230925   7.503   5.296   7.877
 2491TIP3    H130926   7.507   5.200   7.880
 2491TIP3    H230927   7.416   5.317   7.909
 2492TIP3   OH230928   6.593   5.219   7.753
 2492TIP3    H130929   6.586   5.303   7.799
 2492TIP3    H230930   6.504   5.183   7.757
 2493TIP3   OH230931   6.680   5.548   6.741
 2493TIP3    H130932   6.664   5.538   6.648
 2493TIP3    H230933   6.662   5.640   6.759
 2494TIP3   OH230934   5.979   5.439   6.937
 2494TIP3    H130935   6.044   5.418   7.003
 2494TIP3    H230936   5.895   5.423   6.980
 2495TIP3   OH230937   6.946   5.446   6.707
 2495TIP3    H130938   6.858   5.473   6.681
 2495TIP3    H230939   6.938   5.422   6.799
 2496TIP3   OH230940   7.192   4.415   7.926
 2496TIP3    H130941   7.132   4.457   7.864
 2496TIP3    H230942   7.199   4.325   7.895
 2497TIP3   OH230943   5.953   5.083   7.681
 2497TIP3    H130944   5.961   5.071   7.775
 2497TIP3    H230945   5.875   5.032   7.657
 2498TIP3   OH230946   6.208   3.911   7.319
 2498TIP3    H130947   6.131   3.902   7.263
 2498TIP3    H230948   6.185   3.980   7.381
 2499TIP3   OH230949   6.694   3.864   7.658
 2499TIP3    H130950   6.739   3.822   7.731
 2499TIP3    H230951   6.601   3.859   7.680
 2500TIP3   OH230952   6.969   4.267   7.719
 2500TIP3    H130953   6.908   4.249   7.790
 2500TIP3    H230954   6.975   4.362   7.716
 2501TIP3   OH230955   6.219   4.388   7.442
 2501TIP3    H130956   6.147   4.402   7.504
 2501TIP3    H230957   6.239   4.476   7.409
 2502TIP3   OH230958   6.216   4.405   6.903
 2502TIP3    H130959   6.120   4.412   6.901
 2502TIP3    H230960   6.240   4.387   6.812
 2503TIP3   OH230961   6.772   4.417   6.771
 2503TIP3    H130962   6.747   4.508   6.754
 2503TIP3    H230963   6.850   4.404   6.717
 2504TIP3   OH230964   6.719   4.505   7.907
 2504TIP3    H130965   6.648   4.446   7.933
 2504TIP3    H230966   6.793   4.479   7.961
 2505TIP3   OH230967   6.847   4.428   7.064
 2505TIP3    H130968   6.829   4.514   7.026
 2505TIP3    H230969   6.852   4.369   6.988
 2506TIP3   OH230970   5.985   4.419   7.590
 2506TIP3    H130971   5.944   4.476   7.655
 2506TIP3    H230972   5.951   4.332   7.610
 2507TIP3   OH230973   5.685   4.143   7.007
 2507TIP3    H130974   5.724   4.135   7.094
 2507TIP3    H230975   5.710   4.230   6.977
 2508TIP3   OH230976   6.814   4.534   7.546
 2508TIP3    H130977   6.846   4.480   7.474
 2508TIP3    H230978   6.746   4.480   7.588
 2509TIP3   OH230979   6.493   4.133   6.987
 2509TIP3    H130980   6.402   4.146   7.013
 2509TIP3    H230981   6.538   4.104   7.067
 2510TIP3   OH230982   5.945   4.328   6.894
 2510TIP3    H130983   5.865   4.352   6.846
 2510TIP3    H230984   5.963   4.238   6.867
 2511TIP3   OH230985   6.275   4.321   6.642
 2511TIP3    H130986   6.369   4.336   6.647
 2511TIP3    H230987   6.245   4.383   6.576
 2512TIP3   OH230988   6.928   4.092   7.337
 2512TIP3    H130989   6.871   4.094   7.414
 2512TIP3    H230990   6.888   4.027   7.279
 2513TIP3   OH230991   6.171   4.491   6.444
 2513TIP3    H130992   6.087   4.531   6.422
 2513TIP3    H230993   6.199   4.449   6.362
 2514TIP3   OH230994   7.234   5.640   8.007
 2514TIP3    H130995   7.261   5.682   7.925
 2514TIP3    H230996   7.303   5.661   8.069
 2515TIP3   OH230997   5.996   4.905   7.928
 2515TIP3    H130998   6.063   4.916   7.996
 2515TIP3    H230999   5.913   4.913   7.974
 2516TIP3   OH231000   6.585   4.458   7.198
 2516TIP3    H131001   6.654   4.411   7.151
 2516TIP3    H231002   6.553   4.395   7.263
 2517TIP3   OH231003   6.045   4.065   6.853
 2517TIP3    H131004   5.992   3.988   6.871
 2517TIP3    H231005   6.091   4.045   6.772
 2518TIP3   OH231006   6.481   4.304   7.412
 2518TIP3    H131007   6.392   4.339   7.422
 2518TIP3    H231008   6.527   4.332   7.492
 2519TIP3   OH231009   6.519   4.854   6.644
 2519TIP3    H131010   6.447   4.853   6.580
 2519TIP3    H231011   6.478   4.885   6.725
 2520TIP3   OH231012   7.217   4.863   7.445
 2520TIP3    H131013   7.275   4.920   7.394
 2520TIP3    H231014   7.142   4.848   7.387
 2521TIP3   OH231015   6.654   4.952   7.840
 2521TIP3    H131016   6.580   4.956   7.900
 2521TIP3    H231017   6.660   5.039   7.803
 2522TIP3   OH231018   6.994   4.403   6.607
 2522TIP3    H131019   7.081   4.384   6.642
 2522TIP3    H231020   6.997   4.495   6.584
 2523TIP3   OH231021   6.062   4.857   7.210
 2523TIP3    H131022   6.097   4.824   7.127
 2523TIP3    H231023   6.043   4.779   7.261
 2524TIP3   OH231024   6.730   5.024   6.577
 2524TIP3    H131025   6.707   5.106   6.532
 2524TIP3    H231026   6.646   4.980   6.590
 2525TIP3   OH231027   5.767   4.643   7.696
 2525TIP3    H131028   5.740   4.610   7.781
 2525TIP3    H231029   5.688   4.637   7.642
 2526TIP3   OH231030   6.433   4.638   7.896
 2526TIP3    H131031   6.348   4.621   7.855
 2526TIP3    H231032   6.498   4.604   7.834
 2527TIP3   OH231033   6.859   5.146   7.752
 2527TIP3    H131034   6.775   5.187   7.731
 2527TIP3    H231035   6.885   5.185   7.835
 2528TIP3   OH231036   7.395   4.375   6.612
 2528TIP3    H131037   7.443   4.339   6.538
 2528TIP3    H231038   7.356   4.456   6.578
 2529TIP3   OH231039   7.456   4.974   7.830
 2529TIP3    H131040   7.369   4.998   7.799
 2529TIP3    H231041   7.507   4.961   7.750
 2530TIP3   OH231042   7.279   5.270   6.703
 2530TIP3    H131043   7.309   5.182   6.727
 2530TIP3    H231044   7.186   5.271   6.728
 2531TIP3   OH231045   6.999   4.786   7.285
 2531TIP3    H131046   6.904   4.773   7.275
 2531TIP3    H231047   7.038   4.709   7.244
 2532TIP3   OH231048   6.284   5.175   6.958
 2532TIP3    H131049   6.305   5.265   6.935
 2532TIP3    H231050   6.193   5.164   6.931
 2533TIP3   OH231051   5.925   4.640   6.408
 2533TIP3    H131052   5.934   4.731   6.380
 2533TIP3    H231053   5.831   4.626   6.415
 2534TIP3   OH231054   6.382   4.931   6.870
 2534TIP3    H131055   6.366   5.023   6.890
 2534TIP3    H231056   6.307   4.885   6.908
 2535TIP3   OH231057   6.474   5.379   7.547
 2535TIP3    H131058   6.526   5.455   7.520
 2535TIP3    H231059   6.531   5.331   7.606
 2536TIP3   OH231060   6.276   5.440   6.893
 2536TIP3    H131061   6.194   5.478   6.861
 2536TIP3    H231062   6.335   5.515   6.904
 2537TIP3   OH231063   6.786   4.970   7.503
 2537TIP3    H131064   6.813   5.007   7.587
 2537TIP3    H231065   6.867   4.938   7.464
 2538TIP3   OH231066   7.075   5.411   7.710
 2538TIP3    H131067   6.985   5.388   7.686
 2538TIP3    H231068   7.095   5.488   7.657
 2539TIP3   OH231069   5.902   4.142   7.683
 2539TIP3    H131070   5.830   4.188   7.727
 2539TIP3    H231071   5.899   4.054   7.720
 2540TIP3   OH231072   5.885   5.334   7.514
 2540TIP3    H131073   5.921   5.259   7.563
 2540TIP3    H231074   5.887   5.406   7.576
 2541TIP3   OH231075   6.395   5.113   6.443
 2541TIP3    H131076   6.300   5.102   6.434
 2541TIP3    H231077   6.407   5.208   6.447
 2542TIP3   OH231078   6.047   4.908   6.599
 2542TIP3    H131079   5.955   4.934   6.609
 2542TIP3    H231080   6.082   4.971   6.535
 2543TIP3   OH231081   6.789   4.109   7.571
 2543TIP3    H131082   6.856   4.140   7.631
 2543TIP3    H231083   6.758   4.028   7.609
 2544TIP3   OH231084   6.918   4.081   6.582
 2544TIP3    H131085   6.997   4.106   6.534
 2544TIP3    H231086   6.919   4.136   6.661
 2545TIP3   OH231087   6.543   4.267   6.738
 2545TIP3    H131088   6.621   4.323   6.748
 2545TIP3    H231089   6.521   4.241   6.828
 2546TIP3   OH231090   6.643   4.337   7.640
 2546TIP3    H131091   6.641   4.326   7.735
 2546TIP3    H231092   6.685   4.258   7.607
 2547TIP3   OH231093   6.664   3.964   6.843
 2547TIP3    H131094   6.608   4.020   6.897
 2547TIP3    H231095   6.749   4.008   6.843
 2548TIP3   OH231096   6.213   4.047   6.626
 2548TIP3    H131097   6.216   4.143   6.624
 2548TIP3    H231098   6.303   4.019   6.612
 2549TIP3   OH231099   7.215   4.172   7.794
 2549TIP3    H131100   7.128   4.182   7.755
 2549TIP3    H231101   7.274   4.163   7.719
 2550TIP3   OH231102   7.084   4.536   7.185
 2550TIP3    H131103   7.002   4.492   7.161
 2550TIP3    H231104   7.132   4.471   7.237
 2551TIP3   OH231105   7.236   5.468   7.323
 2551TIP3    H131106   7.214   5.535   7.258
 2551TIP3    H231107   7.330   5.480   7.338
 2552TIP3   OH231108   5.962   3.877   7.197
 2552TIP3    H131109   5.945   3.871   7.103
 2552TIP3    H231110   5.929   3.794   7.233
 2553TIP3   OH231111   5.824   5.256   6.759
 2553TIP3    H131112   5.740   5.293   6.786
 2553TIP3    H231113   5.889   5.311   6.802
 2554TIP3   OH231114   5.784   5.575   7.968
 2554TIP3    H131115   5.840   5.551   8.042
 2554TIP3    H231116   5.743   5.492   7.941
 2555TIP3   OH231117   6.237   5.380   8.135
 2555TIP3    H131118   6.323   5.338   8.144
 2555TIP3    H231119   6.206   5.352   8.049
 2556TIP3   OH231120   6.879   5.245   8.012
 2556TIP3    H131121   6.867   5.165   8.062
 2556TIP3    H231122   6.951   5.291   8.055
 2557TIP3   OH231123   5.748   4.932   8.067
 2557TIP3    H131124   5.690   4.861   8.096
 2557TIP3    H231125   5.699   4.976   7.998
 2558TIP3   OH231126   6.411   4.920   7.966
 2558TIP3    H131127   6.377   4.969   7.891
 2558TIP3    H231128   6.407   4.829   7.939
 2559TIP3   OH231129   6.965   4.889   7.772
 2559TIP3    H131130   7.052   4.917   7.743
 2559TIP3    H231131   6.914   4.970   7.778
 2560TIP3   OH231132   5.914   4.546   7.982
 2560TIP3    H131133   6.001   4.511   8.002
 2560TIP3    H231134   5.894   4.604   8.056
 2561TIP3   OH231135   6.308   4.756   6.446
 2561TIP3    H131136   6.258   4.838   6.450
 2561TIP3    H231137   6.252   4.692   6.489
 2562TIP3   OH231138   6.256   4.577   7.690
 2562TIP3    H131139   6.172   4.621   7.704
 2562TIP3    H231140   6.289   4.613   7.608
 2563TIP3   OH231141   6.441   4.591   6.264
 2563TIP3    H131142   6.391   4.510   6.254
 2563TIP3    H231143   6.406   4.632   6.343
 2564TIP3   OH231144   6.783   4.760   8.053
 2564TIP3    H131145   6.877   4.748   8.061
 2564TIP3    H231146   6.746   4.703   8.121
 2565TIP3   OH231147   6.319   4.324   7.805
 2565TIP3    H131148   6.326   4.253   7.741
 2565TIP3    H231149   6.295   4.401   7.753
 2566TIP3   OH231150   6.351   4.121   7.599
 2566TIP3    H131151   6.401   4.158   7.527
 2566TIP3    H231152   6.261   4.116   7.566
 2567TIP3   OH231153   6.580   4.708   7.647
 2567TIP3    H131154   6.622   4.685   7.565
 2567TIP3    H231155   6.504   4.761   7.621
 2568TIP3   OH231156   6.907   4.415   8.099
 2568TIP3    H131157   6.900   4.339   8.157
 2568TIP3    H231158   7.001   4.431   8.093
 2569TIP3   OH231159   7.053   4.754   7.993
 2569TIP3    H131160   7.021   4.813   7.925
 2569TIP3    H231161   7.146   4.742   7.973
 2570TIP3   OH231162   6.147   4.356   8.031
 2570TIP3    H131163   6.070   4.302   8.016
 2570TIP3    H231164   6.197   4.350   7.950
 2571TIP3   OH231165   6.414   3.852   7.659
 2571TIP3    H131166   6.390   3.943   7.644
 2571TIP3    H231167   6.342   3.802   7.619
 2572TIP3   OH231168   6.535   4.302   7.979
 2572TIP3    H131169   6.497   4.268   8.061
 2572TIP3    H231170   6.460   4.308   7.919
 2573TIP3   OH231171   6.785   4.190   7.900
 2573TIP3    H131172   6.704   4.210   7.947
 2573TIP3    H231173   6.837   4.141   7.964
 2574TIP3   OH231174   6.956   4.057   8.083
 2574TIP3    H131175   6.948   3.963   8.096
 2574TIP3    H231176   6.925   4.096   8.165
 2575TIP3   OH231177   5.941   4.170   7.996
 2575TIP3    H131178   5.946   4.092   7.939
 2575TIP3    H231179   5.940   4.134   8.085
 2576TIP3   OH231180   6.392   3.795   7.935
 2576TIP3    H131181   6.408   3.701   7.942
 2576TIP3    H231182   6.401   3.814   7.841
 2577TIP3   OH231183   6.443   3.931   8.169
 2577TIP3    H131184   6.431   3.879   8.089
 2577TIP3    H231185   6.399   4.013   8.151
 2578TIP3   OH231186   5.670   5.591   6.881
 2578TIP3    H131187   5.614   5.551   6.815
 2578TIP3    H231188   5.681   5.523   6.948
 2579TIP3   OH231189   5.744   5.406   7.076
 2579TIP3    H131190   5.703   5.327   7.110
 2579TIP3    H231191   5.778   5.451   7.153
 2580TIP3   OH231192   7.506   5.501   7.393
 2580TIP3    H131193   7.487   5.482   7.485
 2580TIP3    H231194   7.530   5.594   7.391
 2581TIP3   OH231195   7.424   5.448   7.653
 2581TIP3    H131196   7.369   5.374   7.630
 2581TIP3    H231197   7.476   5.417   7.727
 2582TIP3   OH231198   7.289   5.048   8.158
 2582TIP3    H131199   7.209   5.063   8.209
 2582TIP3    H231200   7.340   5.128   8.170
 2583TIP3   OH231201   7.333   4.998   6.756
 2583TIP3    H131202   7.330   4.919   6.703
 2583TIP3    H231203   7.248   5.002   6.799
 2584TIP3   OH231204   7.443   4.665   6.907
 2584TIP3    H131205   7.358   4.630   6.933
 2584TIP3    H231206   7.480   4.701   6.988
 2585TIP3   OH231207   7.445   4.980   7.335
 2585TIP3    H131208   7.467   4.953   7.245
 2585TIP3    H231209   7.471   5.072   7.339
 2586TIP3   OH231210   7.252   5.235   7.592
 2586TIP3    H131211   7.182   5.291   7.625
 2586TIP3    H231212   7.232   5.224   7.499
 2587TIP3   OH231213   7.276   4.600   6.531
 2587TIP3    H131214   7.259   4.630   6.442
 2587TIP3    H231215   7.329   4.669   6.570
 2588TIP3   OH231216   7.303   4.401   6.298
 2588TIP3    H131217   7.298   4.495   6.281
 2588TIP3    H231218   7.237   4.386   6.367
 2589TIP3   OH231219   7.211   4.526   6.940
 2589TIP3    H131220   7.203   4.438   6.903
 2589TIP3    H231221   7.167   4.520   7.025
 2590TIP3   OH231222   5.722   4.712   7.323
 2590TIP3    H131223   5.733   4.714   7.228
 2590TIP3    H231224   5.812   4.710   7.357
 2591TIP3   OH231225   7.321   4.744   7.930
 2591TIP3    H131226   7.378   4.670   7.907
 2591TIP3    H231227   7.361   4.819   7.887
 2592TIP3   OH231228   7.451   4.504   7.893
 2592TIP3    H131229   7.359   4.479   7.908
 2592TIP3    H231230   7.500   4.424   7.910
 2593TIP3   OH231231   7.201   4.283   6.776
 2593TIP3    H131232   7.219   4.189   6.772
 2593TIP3    H231233   7.272   4.323   6.726
 2594TIP3   OH231234   7.242   4.347   7.310
 2594TIP3    H131235   7.334   4.351   7.281
 2594TIP3    H231236   7.247   4.362   7.405
 2595TIP3   OH231237   7.269   4.435   7.577
 2595TIP3    H131238   7.188   4.463   7.621
 2595TIP3    H231239   7.313   4.517   7.553
 2596TIP3   OH231240   5.715   4.257   7.859
 2596TIP3    H131241   5.791   4.251   7.917
 2596TIP3    H231242   5.650   4.200   7.899
 2597TIP3   OH231243   7.486   3.821   8.128
 2597TIP3    H131244   7.538   3.758   8.077
 2597TIP3    H231245   7.475   3.896   8.070
 2598TIP3   OH231246   7.243   4.012   6.752
 2598TIP3    H131247   7.266   3.974   6.837
 2598TIP3    H231248   7.186   3.946   6.711
 2599TIP3   OH231249   5.815   4.108   7.251
 2599TIP3    H131250   5.859   4.023   7.242
 2599TIP3    H231251   5.886   4.170   7.264
 2600TIP3   OH231252   5.666   4.431   7.313
 2600TIP3    H131253   5.736   4.417   7.249
 2600TIP3    H231254   5.670   4.524   7.334
 2601TIP3   OH231255   7.409   4.014   7.950
 2601TIP3    H131256   7.335   4.056   7.993
 2601TIP3    H231257   7.373   3.979   7.869
 2602TIP3   OH231258   5.658   4.046   6.667
 2602TIP3    H131259   5.633   4.112   6.732
 2602TIP3    H231260   5.585   3.984   6.668
 2603TIP3   OH231261   7.197   5.511   6.960
 2603TIP3    H131262   7.233   5.546   6.879
 2603TIP3    H231263   7.194   5.586   7.020
 2604TIP3   OH231264   5.677   3.857   7.556
 2604TIP3    H131265   5.615   3.853   7.629
 2604TIP3    H231266   5.643   3.925   7.499
 2605TIP3   OH231267   5.906   5.223   7.963
 2605TIP3    H131268   5.817   5.255   7.948
 2605TIP3    H231269   5.908   5.202   8.056
 2606TIP3   OH231270   6.212   5.373   7.640
 2606TIP3    H131271   6.184   5.457   7.603
 2606TIP3    H231272   6.302   5.362   7.610
 2607TIP3   OH231273   6.592   5.469   7.870
 2607TIP3    H131274   6.603   5.448   7.963
 2607TIP3    H231275   6.666   5.526   7.849
 2608TIP3   OH231276   6.821   5.625   7.853
 2608TIP3    H131277   6.900   5.607   7.803
 2608TIP3    H231278   6.852   5.644   7.942
 2609TIP3   OH231279   7.315   3.825   7.742
 2609TIP3    H131280   7.240   3.827   7.682
 2609TIP3    H231281   7.357   3.741   7.725
 2610TIP3   OH231282   5.919   5.654   7.609
 2610TIP3    H131283   5.836   5.683   7.572
 2610TIP3    H231284   5.927   5.703   7.691
 2611TIP3   OH231285   6.180   5.622   7.530
 2611TIP3    H131286   6.088   5.636   7.553
 2611TIP3    H231287   6.190   5.665   7.445
 2612TIP3   OH231288   6.630   5.581   7.440
 2612TIP3    H131289   6.581   5.611   7.363
 2612TIP3    H231290   6.647   5.661   7.490
 2613TIP3   OH231291   6.858   5.460   7.533
 2613TIP3    H131292   6.777   5.497   7.500
 2613TIP3    H231293   6.924   5.526   7.515
 2614TIP3   OH231294   7.106   5.610   7.526
 2614TIP3    H131295   7.113   5.703   7.502
 2614TIP3    H231296   7.146   5.564   7.452
 2615TIP3   OH231297   5.896   5.504   7.287
 2615TIP3    H131298   5.884   5.458   7.370
 2615TIP3    H231299   5.976   5.467   7.251
 2616TIP3   OH231300   6.110   5.378   7.176
 2616TIP3    H131301   6.099   5.289   7.209
 2616TIP3    H231302   6.199   5.403   7.201
 2617TIP3   OH231303   6.364   5.391   7.292
 2617TIP3    H131304   6.376   5.301   7.262
 2617TIP3    H231305   6.388   5.389   7.384
 2618TIP3   OH231306   6.634   3.986   7.169
 2618TIP3    H131307   6.578   3.915   7.198
 2618TIP3    H231308   6.719   3.945   7.154
 2619TIP3   OH231309   7.169   3.784   7.143
 2619TIP3    H131310   7.236   3.837   7.101
 2619TIP3    H231311   7.106   3.847   7.178
 2620TIP3   OH231312   7.344   3.924   6.993
 2620TIP3    H131313   7.405   3.856   6.964
 2620TIP3    H231314   7.398   4.003   6.999
 2621TIP3   OH231315   5.909   3.831   6.926
 2621TIP3    H131316   5.818   3.815   6.901
 2621TIP3    H231317   5.951   3.745   6.919
 2622TIP3   OH231318   6.426   3.774   6.947
 2622TIP3    H131319   6.463   3.855   6.912
 2622TIP3    H231320   6.427   3.785   7.042
 2623TIP3   OH231321   6.888   3.885   7.121
 2623TIP3    H131322   6.932   3.916   7.042
 2623TIP3    H231323   6.874   3.792   7.106
 2624TIP3   OH231324   7.064   3.837   6.625
 2624TIP3    H131325   7.004   3.904   6.594
 2624TIP3    H231326   7.017   3.754   6.612
 2625TIP3   OH231327   6.506   4.018   6.623
 2625TIP3    H131328   6.559   3.981   6.694
 2625TIP3    H231329   6.504   4.112   6.641
 2626TIP3   OH231330   7.348   5.546   6.724
 2626TIP3    H131331   7.310   5.461   6.703
 2626TIP3    H231332   7.318   5.603   6.653
 2627TIP3   OH231333   5.919   3.901   7.862
 2627TIP3    H131334   5.852   3.837   7.887
 2627TIP3    H231335   5.994   3.880   7.917
 2628TIP3   OH231336   6.107   3.819   8.048
 2628TIP3    H131337   6.197   3.791   8.030
 2628TIP3    H231338   6.067   3.745   8.094
 2629TIP3   OH231339   6.970   3.778   8.099
 2629TIP3    H131340   6.962   3.732   8.183
 2629TIP3    H231341   7.061   3.766   8.074
 2630TIP3   OH231342   7.244   5.376   7.930
 2630TIP3    H131343   7.183   5.376   7.856
 2630TIP3    H231344   7.244   5.466   7.961
 2631TIP3   OH231345   7.574   4.448   6.809
 2631TIP3    H131346   7.528   4.523   6.845
 2631TIP3    H231347   7.515   4.413   6.742
 2632TIP3   OH231348   7.646   4.774   7.067
 2632TIP3    H131349   7.733   4.736   7.056
 2632TIP3    H231350   7.643   4.845   7.003
 2633TIP3   OH231351   7.647   5.274   6.750
 2633TIP3    H131352   7.566   5.300   6.707
 2633TIP3    H231353   7.648   5.178   6.744
 2634TIP3   OH231354   7.554   4.901   7.580
 2634TIP3    H131355   7.530   4.950   7.502
 2634TIP3    H231356   7.516   4.814   7.568
 2635TIP3   OH231357   7.562   5.225   7.338
 2635TIP3    H131358   7.656   5.217   7.322
 2635TIP3    H231359   7.550   5.315   7.366
 2636TIP3   OH231360   7.505   4.145   6.967
 2636TIP3    H131361   7.598   4.143   6.988
 2636TIP3    H231362   7.502   4.151   6.871
 2637TIP3   OH231363   7.590   4.246   6.464
 2637TIP3    H131364   7.621   4.310   6.400
 2637TIP3    H231365   7.658   4.243   6.531
 2638TIP3   OH231366   7.595   4.562   7.665
 2638TIP3    H131367   7.553   4.539   7.748
 2638TIP3    H231368   7.523   4.594   7.610
 2639TIP3   OH231369   7.620   5.528   7.982
 2639TIP3    H131370   7.715   5.528   7.974
 2639TIP3    H231371   7.592   5.444   7.947
 2640TIP3   OH231372   7.590   4.924   8.067
 2640TIP3    H131373   7.526   4.866   8.108
 2640TIP3    H231374   7.548   4.954   7.987
 2641TIP3   OH231375   0.036   5.197   6.420
 2641TIP3    H131376   0.050   5.292   6.418
 2641TIP3    H231377   0.065   5.167   6.335
 2642TIP3   OH231378   7.497   5.632   6.938
 2642TIP3    H131379   7.450   5.603   6.860
 2642TIP3    H231380   7.504   5.553   6.992
 2643TIP3   OH231381   7.541   5.423   7.118
 2643TIP3    H131382   7.502   5.335   7.117
 2643TIP3    H231383   7.527   5.454   7.207
 2644TIP3   OH231384   7.602   4.677   7.329
 2644TIP3    H131385   7.584   4.684   7.235
 2644TIP3    H231386   7.684   4.724   7.341
 2645TIP3   OH231387   7.546   4.248   7.891
 2645TIP3    H131388   7.638   4.222   7.895
 2645TIP3    H231389   7.498   4.172   7.922
 2646TIP3   OH231390   7.507   4.343   7.236
 2646TIP3    H131391   7.523   4.325   7.143
 2646TIP3    H231392   7.589   4.381   7.267
 2647TIP3   OH231393   7.509   4.081   6.682
 2647TIP3    H131394   7.419   4.049   6.688
 2647TIP3    H231395   7.514   4.125   6.597
 2648TIP3   OH231396   7.506   3.864   7.517
 2648TIP3    H131397   7.453   3.868   7.596
 2648TIP3    H231398   7.473   3.936   7.463
 2649TIP3   OH231399   7.587   5.532   6.575
 2649TIP3    H131400   7.511   5.564   6.622
 2649TIP3    H231401   7.576   5.564   6.486
 2650TIP3   OH231402   1.195   6.678   6.908
 2650TIP3    H131403   1.168   6.770   6.914
 2650TIP3    H231404   1.140   6.641   6.838
 2651TIP3   OH231405   1.070   6.564   7.308
 2651TIP3    H131406   1.111   6.520   7.382
 2651TIP3    H231407   1.031   6.493   7.256
 2652TIP3   OH231408   0.281   6.524   7.450
 2652TIP3    H131409   0.294   6.437   7.488
 2652TIP3    H231410   0.347   6.579   7.492
 2653TIP3   OH231411   1.438   6.898   7.132
 2653TIP3    H131412   1.407   6.819   7.175
 2653TIP3    H231413   1.452   6.960   7.204
 2654TIP3   OH231414   0.416   6.979   7.266
 2654TIP3    H131415   0.413   6.893   7.224
 2654TIP3    H231416   0.464   6.964   7.348
 2655TIP3   OH231417   0.117   6.412   6.813
 2655TIP3    H131418   0.124   6.452   6.726
 2655TIP3    H231419   0.033   6.367   6.811
 2656TIP3   OH231420   0.238   6.556   7.042
 2656TIP3    H131421   0.241   6.468   7.079
 2656TIP3    H231422   0.236   6.543   6.948
 2657TIP3   OH231423   1.164   7.340   7.161
 2657TIP3    H131424   1.213   7.287   7.099
 2657TIP3    H231425   1.140   7.278   7.231
 2658TIP3   OH231426   0.940   6.815   7.322
 2658TIP3    H131427   0.974   6.730   7.296
 2658TIP3    H231428   1.007   6.851   7.379
 2659TIP3   OH231429   1.778   5.951   7.410
 2659TIP3    H131430   1.803   6.021   7.471
 2659TIP3    H231431   1.819   5.976   7.327
 2660TIP3   OH231432   1.277   6.244   7.344
 2660TIP3    H131433   1.290   6.149   7.344
 2660TIP3    H231434   1.251   6.265   7.254
 2661TIP3   OH231435   0.595   6.063   7.049
 2661TIP3    H131436   0.588   6.145   7.001
 2661TIP3    H231437   0.576   5.995   6.985
 2662TIP3   OH231438   1.319   6.117   6.957
 2662TIP3    H131439   1.386   6.075   7.011
 2662TIP3    H231440   1.310   6.058   6.882
 2663TIP3   OH231441   0.219   6.294   7.134
 2663TIP3    H131442   0.295   6.248   7.170
 2663TIP3    H231443   0.184   6.235   7.068
 2664TIP3   OH231444   0.708   6.464   7.097
 2664TIP3    H131445   0.789   6.421   7.125
 2664TIP3    H231446   0.665   6.399   7.041
 2665TIP3   OH231447   1.850   6.134   7.614
 2665TIP3    H131448   1.777   6.193   7.597
 2665TIP3    H231449   1.868   6.143   7.707
 2666TIP3   OH231450   0.451   5.993   7.482
 2666TIP3    H131451   0.421   6.040   7.405
 2666TIP3    H231452   0.379   6.000   7.544
 2667TIP3   OH231453   1.062   6.925   6.841
 2667TIP3    H131454   1.084   6.916   6.749
 2667TIP3    H231455   1.060   7.020   6.856
 2668TIP3   OH231456   0.714   6.750   7.466
 2668TIP3    H131457   0.655   6.824   7.484
 2668TIP3    H231458   0.786   6.789   7.416
 2669TIP3   OH231459   1.509   6.037   7.143
 2669TIP3    H131460   1.519   5.949   7.179
 2669TIP3    H231461   1.560   6.093   7.201
 2670TIP3   OH231462   0.423   6.143   7.250
 2670TIP3    H131463   0.483   6.200   7.297
 2670TIP3    H231464   0.476   6.104   7.180
 2671TIP3   OH231465   0.541   6.964   7.528
 2671TIP3    H131466   0.556   7.058   7.540
 2671TIP3    H231467   0.455   6.948   7.567
 2672TIP3   OH231468   0.152   6.946   6.648
 2672TIP3    H131469   0.169   6.976   6.559
 2672TIP3    H231470   0.057   6.933   6.651
 2673TIP3   OH231471   1.473   7.096   7.345
 2673TIP3    H131472   1.377   7.099   7.352
 2673TIP3    H231473   1.498   7.186   7.327
 2674TIP3   OH231474   1.510   5.886   7.502
 2674TIP3    H131475   1.436   5.917   7.449
 2674TIP3    H231476   1.587   5.899   7.446
 2675TIP3   OH231477   0.804   5.667   7.262
 2675TIP3    H131478   0.773   5.588   7.217
 2675TIP3    H231479   0.725   5.719   7.276
 2676TIP3   OH231480   1.306   7.220   6.956
 2676TIP3    H131481   1.351   7.139   6.931
 2676TIP3    H231482   1.370   7.289   6.940
 2677TIP3   OH231483   1.462   7.004   6.875
 2677TIP3    H131484   1.471   6.932   6.813
 2677TIP3    H231485   1.456   6.961   6.961
 2678TIP3   OH231486   1.611   6.873   7.695
 2678TIP3    H131487   1.598   6.819   7.617
 2678TIP3    H231488   1.615   6.963   7.662
 2679TIP3   OH231489   1.066   6.595   6.677
 2679TIP3    H131490   1.001   6.654   6.639
 2679TIP3    H231491   1.134   6.587   6.610
 2680TIP3   OH231492   1.790   6.570   7.533
 2680TIP3    H131493   1.709   6.619   7.519
 2680TIP3    H231494   1.835   6.573   7.449
 2681TIP3   OH231495   1.413   6.571   6.777
 2681TIP3    H131496   1.343   6.600   6.835
 2681TIP3    H231497   1.470   6.517   6.832
 2682TIP3   OH231498   1.420   6.469   7.676
 2682TIP3    H131499   1.411   6.559   7.707
 2682TIP3    H231500   1.345   6.456   7.618
 2683TIP3   OH231501   0.576   6.631   6.908
 2683TIP3    H131502   0.520   6.578   6.851
 2683TIP3    H231503   0.613   6.569   6.971
 2684TIP3   OH231504   0.763   6.997   7.200
 2684TIP3    H131505   0.740   6.945   7.123
 2684TIP3    H231506   0.829   6.945   7.245
 2685TIP3   OH231507   0.580   6.555   7.322
 2685TIP3    H131508   0.632   6.532   7.245
 2685TIP3    H231509   0.633   6.619   7.369
 2686TIP3   OH231510   1.204   7.113   7.390
 2686TIP3    H131511   1.196   7.179   7.459
 2686TIP3    H231512   1.174   7.032   7.431
 2687TIP3   OH231513   0.691   6.975   7.783
 2687TIP3    H131514   0.626   7.029   7.828
 2687TIP3    H231515   0.649   6.951   7.701
 2688TIP3   OH231516   1.303   6.556   6.524
 2688TIP3    H131517   1.352   6.578   6.604
 2688TIP3    H231518   1.363   6.576   6.453
 2689TIP3   OH231519   0.407   6.623   7.701
 2689TIP3    H131520   0.413   6.699   7.760
 2689TIP3    H231521   0.316   6.595   7.708
 2690TIP3   OH231522   1.052   7.202   6.846
 2690TIP3    H131523   1.129   7.215   6.901
 2690TIP3    H231524   1.007   7.286   6.846
 2691TIP3   OH231525   0.499   7.150   7.881
 2691TIP3    H131526   0.499   7.186   7.793
 2691TIP3    H231527   0.407   7.135   7.901
 2692TIP3   OH231528   1.646   5.675   6.511
 2692TIP3    H131529   1.616   5.592   6.474
 2692TIP3    H231530   1.566   5.718   6.540
 2693TIP3   OH231531   0.397   6.529   6.732
 2693TIP3    H131532   0.381   6.608   6.681
 2693TIP3    H231533   0.373   6.457   6.673
 2694TIP3   OH231534   0.111   6.807   7.669
 2694TIP3    H131535   0.021   6.812   7.636
 2694TIP3    H231536   0.124   6.714   7.688
 2695TIP3   OH231537   0.135   7.077   7.272
 2695TIP3    H131538   0.212   7.024   7.248
 2695TIP3    H231539   0.160   7.119   7.355
 2696TIP3   OH231540   1.862   7.169   7.903
 2696TIP3    H131541   1.849   7.075   7.884
 2696TIP3    H231542   1.776   7.199   7.933
 2697TIP3   OH231543   0.939   7.100   7.765
 2697TIP3    H131544   0.938   7.183   7.812
 2697TIP3    H231545   0.850   7.065   7.776
 2698TIP3   OH231546   0.967   7.460   6.783
 2698TIP3    H131547   0.901   7.458   6.713
 2698TIP3    H231548   0.925   7.510   6.854
 2699TIP3   OH231549   0.372   7.290   6.926
 2699TIP3    H131550   0.387   7.265   7.017
 2699TIP3    H231551   0.294   7.240   6.900
 2700TIP3   OH231552   1.221   7.397   6.690
 2700TIP3    H131553   1.135   7.424   6.722
 2700TIP3    H231554   1.229   7.306   6.716
 2701TIP3   OH231555   1.568   6.293   7.892
 2701TIP3    H131556   1.502   6.339   7.840
 2701TIP3    H231557   1.563   6.202   7.861
 2702TIP3   OH231558   0.313   6.981   7.681
 2702TIP3    H131559   0.353   6.942   7.759
 2702TIP3    H231560   0.237   6.925   7.663
 2703TIP3   OH231561   0.561   5.796   7.317
 2703TIP3    H131562   0.489   5.791   7.254
 2703TIP3    H231563   0.539   5.871   7.373
 2704TIP3   OH231564   1.026   5.759   7.657
 2704TIP3    H131565   1.068   5.713   7.729
 2704TIP3    H231566   0.932   5.749   7.673
 2705TIP3   OH231567   1.330   6.168   7.756
 2705TIP3    H131568   1.258   6.148   7.815
 2705TIP3    H231569   1.293   6.232   7.694
 2706TIP3   OH231570   0.571   6.302   7.425
 2706TIP3    H131571   0.496   6.296   7.484
 2706TIP3    H231572   0.569   6.391   7.391
 2707TIP3   OH231573   0.574   6.304   6.919
 2707TIP3    H131574   0.481   6.289   6.900
 2707TIP3    H231575   0.617   6.302   6.833
 2708TIP3   OH231576   1.102   6.352   6.815
 2708TIP3    H131577   1.077   6.433   6.769
 2708TIP3    H231578   1.175   6.317   6.763
 2709TIP3   OH231579   1.008   6.365   7.924
 2709TIP3    H131580   0.957   6.292   7.959
 2709TIP3    H231581   1.093   6.357   7.967
 2710TIP3   OH231582   1.234   6.337   7.085
 2710TIP3    H131583   1.176   6.384   7.025
 2710TIP3    H231584   1.258   6.257   7.037
 2711TIP3   OH231585   0.347   6.290   7.584
 2711TIP3    H131586   0.372   6.312   7.674
 2711TIP3    H231587   0.297   6.209   7.593
 2712TIP3   OH231588   0.096   6.068   7.003
 2712TIP3    H131589   0.109   5.982   7.044
 2712TIP3    H231590   0.079   6.048   6.911
 2713TIP3   OH231591   1.191   6.424   7.523
 2713TIP3    H131592   1.226   6.362   7.459
 2713TIP3    H231593   1.119   6.376   7.566
 2714TIP3   OH231594   0.877   6.067   7.044
 2714TIP3    H131595   0.783   6.058   7.060
 2714TIP3    H231596   0.916   5.999   7.098
 2715TIP3   OH231597   0.320   6.230   6.856
 2715TIP3    H131598   0.252   6.296   6.842
 2715TIP3    H231599   0.284   6.150   6.818
 2716TIP3   OH231600   0.689   6.282   6.676
 2716TIP3    H131601   0.767   6.226   6.675
 2716TIP3    H231602   0.674   6.303   6.584
 2717TIP3   OH231603   1.270   5.964   7.368
 2717TIP3    H131604   1.198   5.977   7.430
 2717TIP3    H231605   1.229   5.922   7.292
 2718TIP3   OH231606   0.635   6.388   6.428
 2718TIP3    H131607   0.541   6.387   6.410
 2718TIP3    H231608   0.674   6.428   6.350
 2719TIP3   OH231609   1.548   7.537   7.974
 2719TIP3    H131610   1.573   7.566   7.886
 2719TIP3    H231611   1.625   7.557   8.028
 2720TIP3   OH231612   0.396   6.826   7.896
 2720TIP3    H131613   0.457   6.817   7.969
 2720TIP3    H231614   0.309   6.818   7.937
 2721TIP3   OH231615   0.928   6.327   7.202
 2721TIP3    H131616   0.951   6.261   7.136
 2721TIP3    H231617   0.898   6.276   7.278
 2722TIP3   OH231618   0.549   5.875   6.851
 2722TIP3    H131619   0.466   5.829   6.866
 2722TIP3    H231620   0.555   5.886   6.756
 2723TIP3   OH231621   0.828   6.203   7.434
 2723TIP3    H131622   0.741   6.243   7.435
 2723TIP3    H231623   0.873   6.244   7.508
 2724TIP3   OH231624   0.842   6.806   6.628
 2724TIP3    H131625   0.773   6.747   6.596
 2724TIP3    H231626   0.824   6.814   6.722
 2725TIP3   OH231627   1.579   6.733   7.462
 2725TIP3    H131628   1.633   6.792   7.409
 2725TIP3    H231629   1.504   6.711   7.406
 2726TIP3   OH231630   1.188   6.109   6.475
 2726TIP3    H131631   1.232   6.120   6.390
 2726TIP3    H231632   1.226   6.177   6.530
 2727TIP3   OH231633   1.037   6.834   7.762
 2727TIP3    H131634   1.028   6.790   7.846
 2727TIP3    H231635   0.992   6.918   7.774
 2728TIP3   OH231636   1.312   6.289   6.641
 2728TIP3    H131637   1.393   6.265   6.687
 2728TIP3    H231638   1.330   6.376   6.605
 2729TIP3   OH231639   0.428   6.726   7.164
 2729TIP3    H131640   0.371   6.674   7.107
 2729TIP3    H231641   0.469   6.663   7.222
 2730TIP3   OH231642   1.069   6.938   6.563
 2730TIP3    H131643   1.059   7.005   6.496
 2730TIP3    H231644   0.982   6.900   6.572
 2731TIP3   OH231645   0.151   6.546   7.757
 2731TIP3    H131646   0.158   6.527   7.851
 2731TIP3    H231647   0.062   6.519   7.734
 2732TIP3   OH231648   0.787   6.535   7.921
 2732TIP3    H131649   0.726   6.502   7.855
 2732TIP3    H231650   0.868   6.488   7.903
 2733TIP3   OH231651   1.236   7.078   7.754
 2733TIP3    H131652   1.145   7.077   7.726
 2733TIP3    H231653   1.232   7.096   7.848
 2734TIP3   OH231654   1.733   6.293   6.551
 2734TIP3    H131655   1.692   6.236   6.486
 2734TIP3    H231656   1.705   6.381   6.526
 2735TIP3   OH231657   1.842   6.897   7.841
 2735TIP3    H131658   1.750   6.895   7.813
 2735TIP3    H231659   1.891   6.875   7.763
 2736TIP3   OH231660   1.614   7.130   6.641
 2736TIP3    H131661   1.571   7.090   6.717
 2736TIP3    H231662   1.566   7.096   6.566
 2737TIP3   OH231663   1.370   6.661   7.286
 2737TIP3    H131664   1.276   6.643   7.274
 2737TIP3    H231665   1.414   6.585   7.249
 2738TIP3   OH231666   0.593   7.062   6.933
 2738TIP3    H131667   0.615   7.091   7.022
 2738TIP3    H231668   0.595   7.143   6.881
 2739TIP3   OH231669   0.268   6.539   6.478
 2739TIP3    H131670   0.314   6.586   6.410
 2739TIP3    H231671   0.197   6.493   6.432
 2740TIP3   OH231672   0.801   6.837   6.906
 2740TIP3    H131673   0.886   6.880   6.900
 2740TIP3    H231674   0.821   6.752   6.946
 2741TIP3   OH231675   0.834   7.251   7.545
 2741TIP3    H131676   0.886   7.329   7.524
 2741TIP3    H231677   0.890   7.200   7.603
 2742TIP3   OH231678   0.623   7.328   6.825
 2742TIP3    H131679   0.532   7.333   6.854
 2742TIP3    H231680   0.664   7.408   6.859
 2743TIP3   OH231681   1.139   6.865   7.508
 2743TIP3    H131682   1.101   6.850   7.594
 2743TIP3    H231683   1.206   6.798   7.499
 2744TIP3   OH231684   1.419   6.977   6.515
 2744TIP3    H131685   1.443   6.902   6.571
 2744TIP3    H231686   1.393   6.937   6.432
 2745TIP3   OH231687   1.429   7.282   7.727
 2745TIP3    H131688   1.355   7.222   7.716
 2745TIP3    H231689   1.414   7.351   7.663
 2746TIP3   OH231690   1.824   7.377   6.441
 2746TIP3    H131691   1.786   7.331   6.366
 2746TIP3    H231692   1.755   7.438   6.468
 2747TIP3   OH231693   0.230   6.042   7.648
 2747TIP3    H131694   0.177   6.066   7.724
 2747TIP3    H231695   0.182   5.970   7.607
 2748TIP3   OH231696   1.529   6.802   6.693
 2748TIP3    H131697   1.493   6.718   6.723
 2748TIP3    H231698   1.618   6.781   6.664
 2749TIP3   OH231699   0.219   7.194   7.516
 2749TIP3    H131700   0.254   7.123   7.570
 2749TIP3    H231701   0.191   7.261   7.578
 2750TIP3   OH231702   0.789   7.064   6.471
 2750TIP3    H131703   0.758   6.976   6.490
 2750TIP3    H231704   0.715   7.121   6.495
 2751TIP3   OH231705   0.404   6.832   6.676
 2751TIP3    H131706   0.312   6.856   6.678
 2751TIP3    H231707   0.431   6.844   6.585
 2752TIP3   OH231708   1.117   6.013   7.605
 2752TIP3    H131709   1.191   6.011   7.664
 2752TIP3    H231710   1.075   5.928   7.616
 2753TIP3   OH231711   1.210   5.945   6.697
 2753TIP3    H131712   1.187   5.997   6.620
 2753TIP3    H231713   1.274   5.882   6.664
 2754TIP3   OH231714   0.981   7.251   6.524
 2754TIP3    H131715   0.910   7.192   6.501
 2754TIP3    H231716   1.006   7.226   6.613
 2755TIP3   OH231717   0.919   6.146   6.779
 2755TIP3    H131718   0.985   6.215   6.786
 2755TIP3    H231719   0.893   6.128   6.870
 2756TIP3   OH231720   1.006   6.267   7.649
 2756TIP3    H131721   1.002   6.282   7.743
 2756TIP3    H231722   1.032   6.176   7.640
 2757TIP3   OH231723   1.003   5.861   6.852
 2757TIP3    H131724   0.967   5.936   6.898
 2757TIP3    H231725   1.078   5.896   6.804
 2758TIP3   OH231726   0.619   7.266   6.553
 2758TIP3    H131727   0.532   7.287   6.521
 2758TIP3    H231728   0.616   7.289   6.646
 2759TIP3   OH231729   0.589   5.895   6.572
 2759TIP3    H131730   0.521   5.919   6.509
 2759TIP3    H231731   0.664   5.949   6.548
 2760TIP3   OH231732   1.563   6.027   7.750
 2760TIP3    H131733   1.477   6.068   7.749
 2760TIP3    H231734   1.565   5.974   7.671
 2761TIP3   OH231735   1.477   6.423   7.186
 2761TIP3    H131736   1.392   6.388   7.159
 2761TIP3    H231737   1.520   6.350   7.231
 2762TIP3   OH231738   0.459   6.908   6.405
 2762TIP3    H131739   0.461   6.972   6.334
 2762TIP3    H231740   0.481   6.825   6.363
 2763TIP3   OH231741   1.553   7.360   7.348
 2763TIP3    H131742   1.529   7.418   7.276
 2763TIP3    H231743   1.649   7.367   7.353
 2764TIP3   OH231744   0.316   5.778   7.186
 2764TIP3    H131745   0.322   5.766   7.092
 2764TIP3    H231746   0.282   5.694   7.219
 2765TIP3   OH231747   0.123   7.138   6.857
 2765TIP3    H131748   0.128   7.205   6.789
 2765TIP3    H231749   0.140   7.056   6.810
 2766TIP3   OH231750   0.181   7.365   8.010
 2766TIP3    H131751   0.233   7.376   8.089
 2766TIP3    H231752   0.199   7.275   7.982
 2767TIP3   OH231753   0.587   7.247   8.124
 2767TIP3    H131754   0.663   7.192   8.145
 2767TIP3    H231755   0.559   7.217   8.037
 2768TIP3   OH231756   1.223   7.135   8.023
 2768TIP3    H131757   1.217   7.051   8.068
 2768TIP3    H231758   1.301   7.177   8.060
 2769TIP3   OH231759   0.156   6.787   8.029
 2769TIP3    H131760   0.175   6.693   8.021
 2769TIP3    H231761   0.061   6.792   8.033
 2770TIP3   OH231762   0.787   6.808   7.982
 2770TIP3    H131763   0.758   6.852   7.902
 2770TIP3    H231764   0.795   6.716   7.956
 2771TIP3   OH231765   1.353   6.788   7.761
 2771TIP3    H131766   1.436   6.833   7.743
 2771TIP3    H231767   1.286   6.856   7.754
 2772TIP3   OH231768   0.215   6.516   8.026
 2772TIP3    H131769   0.287   6.452   8.029
 2772TIP3    H231770   0.190   6.527   8.118
 2773TIP3   OH231771   0.647   6.642   6.549
 2773TIP3    H131772   0.652   6.547   6.555
 2773TIP3    H231773   0.597   6.660   6.470
 2774TIP3   OH231774   0.592   6.424   7.730
 2774TIP3    H131775   0.526   6.493   7.720
 2774TIP3    H231776   0.661   6.448   7.669
 2775TIP3   OH231777   1.125   6.680   8.047
 2775TIP3    H131778   1.201   6.633   8.012
 2775TIP3    H231779   1.081   6.616   8.102
 2776TIP3   OH231780   0.656   6.175   7.822
 2776TIP3    H131781   0.667   6.112   7.751
 2776TIP3    H231782   0.633   6.257   7.779
 2777TIP3   OH231783   0.698   6.009   7.599
 2777TIP3    H131784   0.754   6.051   7.533
 2777TIP3    H231785   0.612   6.004   7.557
 2778TIP3   OH231786   0.802   6.523   7.595
 2778TIP3    H131787   0.897   6.520   7.580
 2778TIP3    H231788   0.774   6.605   7.554
 2779TIP3   OH231789   1.237   6.325   8.095
 2779TIP3    H131790   1.245   6.235   8.127
 2779TIP3    H231791   1.323   6.346   8.059
 2780TIP3   OH231792   1.399   6.617   7.966
 2780TIP3    H131793   1.369   6.679   7.899
 2780TIP3    H231794   1.492   6.605   7.948
 2781TIP3   OH231795   0.508   6.231   8.057
 2781TIP3    H131796   0.431   6.177   8.039
 2781TIP3    H231797   0.556   6.231   7.975
 2782TIP3   OH231798   0.749   5.744   7.668
 2782TIP3    H131799   0.732   5.835   7.644
 2782TIP3    H231800   0.683   5.694   7.619
 2783TIP3   OH231801   0.863   6.144   7.998
 2783TIP3    H131802   0.820   6.103   8.073
 2783TIP3    H231803   0.794   6.151   7.932
 2784TIP3   OH231804   1.122   6.090   7.910
 2784TIP3    H131805   1.033   6.093   7.944
 2784TIP3    H231806   1.164   6.019   7.958
 2785TIP3   OH231807   1.256   5.908   8.057
 2785TIP3    H131808   1.276   5.816   8.076
 2785TIP3    H231809   1.260   5.951   8.142
 2786TIP3   OH231810   0.321   6.038   8.003
 2786TIP3    H131811   0.332   5.968   7.938
 2786TIP3    H231812   0.311   5.992   8.086
 2787TIP3   OH231813   0.742   5.663   7.931
 2787TIP3    H131814   0.791   5.582   7.921
 2787TIP3    H231815   0.739   5.700   7.842
 2788TIP3   OH231816   0.807   5.795   8.169
 2788TIP3    H131817   0.791   5.745   8.089
 2788TIP3    H231818   0.754   5.874   8.159
 2789TIP3   OH231819   0.196   7.004   6.376
 2789TIP3    H131820   0.283   6.965   6.386
 2789TIP3    H231821   0.204   7.062   6.301
 2790TIP3   OH231822   0.070   7.572   6.957
 2790TIP3    H131823   0.070   7.664   6.931
 2790TIP3    H231824  -0.013   7.537   6.925
 2791TIP3   OH231825   0.064   7.348   7.117
 2791TIP3    H131826   0.124   7.354   7.191
 2791TIP3    H231827   0.073   7.432   7.072
 2792TIP3   OH231828   1.816   7.425   7.337
 2792TIP3    H131829   1.850   7.480   7.408
 2792TIP3    H231830   1.863   7.454   7.259
 2793TIP3   OH231831   1.787   7.330   7.681
 2793TIP3    H131832   1.748   7.263   7.625
 2793TIP3    H231833   1.832   7.281   7.750
 2794TIP3   OH231834   1.656   6.926   8.172
 2794TIP3    H131835   1.573   6.943   8.217
 2794TIP3    H231836   1.706   7.007   8.182
 2795TIP3   OH231837   1.797   6.732   6.642
 2795TIP3    H131838   1.870   6.791   6.660
 2795TIP3    H231839   1.800   6.668   6.713
 2796TIP3   OH231840   1.807   6.557   6.851
 2796TIP3    H131841   1.725   6.516   6.880
 2796TIP3    H231842   1.857   6.568   6.932
 2797TIP3   OH231843   1.805   6.870   7.369
 2797TIP3    H131844   1.849   6.796   7.328
 2797TIP3    H231845   1.849   6.947   7.334
 2798TIP3   OH231846   1.616   7.125   7.586
 2798TIP3    H131847   1.550   7.179   7.629
 2798TIP3    H231848   1.581   7.110   7.498
 2799TIP3   OH231849   1.584   6.420   6.930
 2799TIP3    H131850   1.569   6.333   6.895
 2799TIP3    H231851   1.552   6.415   7.020
 2800TIP3   OH231852   0.140   6.693   7.284
 2800TIP3    H131853   0.178   6.675   7.198
 2800TIP3    H231854   0.194   6.644   7.345
 2801TIP3   OH231855   1.674   6.626   7.908
 2801TIP3    H131856   1.730   6.552   7.886
 2801TIP3    H231857   1.687   6.688   7.837
 2802TIP3   OH231858   1.819   6.396   7.880
 2802TIP3    H131859   1.731   6.359   7.877
 2802TIP3    H231860   1.877   6.320   7.890
 2803TIP3   OH231861   1.559   6.201   6.758
 2803TIP3    H131862   1.564   6.107   6.771
 2803TIP3    H231863   1.630   6.221   6.697
 2804TIP3   OH231864   1.642   6.230   7.310
 2804TIP3    H131865   1.736   6.244   7.296
 2804TIP3    H231866   1.629   6.250   7.403
 2805TIP3   OH231867   1.649   6.329   7.574
 2805TIP3    H131868   1.565   6.362   7.607
 2805TIP3    H231869   1.701   6.408   7.561
 2806TIP3   OH231870   0.079   6.053   7.883
 2806TIP3    H131871   0.157   6.070   7.935
 2806TIP3    H231872   0.073   5.958   7.877
 2807TIP3   OH231873   1.844   5.746   8.082
 2807TIP3    H131874   1.907   5.692   8.034
 2807TIP3    H231875   1.827   5.820   8.024
 2808TIP3   OH231876   1.597   5.923   6.762
 2808TIP3    H131877   1.614   5.871   6.841
 2808TIP3    H231878   1.535   5.870   6.712
 2809TIP3   OH231879   0.167   5.965   7.322
 2809TIP3    H131880   0.224   5.907   7.272
 2809TIP3    H231881   0.179   6.051   7.282
 2810TIP3   OH231882   0.060   6.364   7.348
 2810TIP3    H131883   0.110   6.340   7.270
 2810TIP3    H231884   0.112   6.432   7.390
 2811TIP3   OH231885   1.738   5.968   7.956
 2811TIP3    H131886   1.677   5.993   8.026
 2811TIP3    H231887   1.686   5.972   7.876
 2812TIP3   OH231888   0.044   5.983   6.746
 2812TIP3    H131889  -0.048   5.967   6.724
 2812TIP3    H231890   0.082   6.014   6.664
 2813TIP3   OH231891   1.482   7.429   6.921
 2813TIP3    H131892   1.564   7.404   6.877
 2813TIP3    H231893   1.511   7.467   7.004
 2814TIP3   OH231894   0.075   5.835   7.541
 2814TIP3    H131895  -0.016   5.805   7.533
 2814TIP3    H231896   0.093   5.879   7.458
 2815TIP3   OH231897   0.232   7.097   7.966
 2815TIP3    H131898   0.187   7.039   7.905
 2815TIP3    H231899   0.208   7.065   8.052
 2816TIP3   OH231900   0.571   7.222   7.618
 2816TIP3    H131901   0.534   7.305   7.588
 2816TIP3    H231902   0.665   7.231   7.602
 2817TIP3   OH231903   0.961   7.346   7.893
 2817TIP3    H131904   0.969   7.321   7.985
 2817TIP3    H231905   1.046   7.385   7.872
 2818TIP3   OH231906   1.212   7.460   7.866
 2818TIP3    H131907   1.285   7.410   7.832
 2818TIP3    H231908   1.237   7.481   7.956
 2819TIP3   OH231909   1.668   5.696   7.728
 2819TIP3    H131910   1.598   5.702   7.663
 2819TIP3    H231911   1.708   5.611   7.713
 2820TIP3   OH231912   0.272   7.501   7.622
 2820TIP3    H131913   0.196   7.536   7.574
 2820TIP3    H231914   0.266   7.541   7.709
 2821TIP3   OH231915   0.528   7.480   7.540
 2821TIP3    H131916   0.437   7.487   7.568
 2821TIP3    H231917   0.535   7.541   7.466
 2822TIP3   OH231918   0.981   7.467   7.448
 2822TIP3    H131919   0.935   7.497   7.370
 2822TIP3    H231920   0.991   7.545   7.502
 2823TIP3   OH231921   1.198   7.338   7.550
 2823TIP3    H131922   1.119   7.376   7.513
 2823TIP3    H231923   1.264   7.407   7.542
 2824TIP3   OH231924   1.429   7.502   7.545
 2824TIP3    H131925   1.405   7.587   7.507
 2824TIP3    H231926   1.471   7.455   7.473
 2825TIP3   OH231927   0.260   7.377   7.310
 2825TIP3    H131928   0.244   7.326   7.388
 2825TIP3    H231929   0.330   7.331   7.264
 2826TIP3   OH231930   0.459   7.235   7.185
 2826TIP3    H131931   0.440   7.144   7.210
 2826TIP3    H231932   0.544   7.253   7.223
 2827TIP3   OH231933   0.715   7.256   7.292
 2827TIP3    H131934   0.738   7.170   7.256
 2827TIP3    H231935   0.748   7.253   7.382
 2828TIP3   OH231936   0.997   5.850   7.169
 2828TIP3    H131937   0.934   5.784   7.198
 2828TIP3    H231938   1.049   5.806   7.102
 2829TIP3   OH231939   1.534   5.750   7.198
 2829TIP3    H131940   1.597   5.761   7.127
 2829TIP3    H231941   1.449   5.740   7.154
 2830TIP3   OH231942   1.715   5.799   6.995
 2830TIP3    H131943   1.783   5.741   6.960
 2830TIP3    H231944   1.761   5.879   7.018
 2831TIP3   OH231945   0.322   5.723   6.917
 2831TIP3    H131946   0.238   5.724   6.871
 2831TIP3    H231947   0.351   5.632   6.910
 2832TIP3   OH231948   0.741   5.666   6.920
 2832TIP3    H131949   0.818   5.678   6.865
 2832TIP3    H231950   0.688   5.744   6.904
 2833TIP3   OH231951   1.294   5.728   7.064
 2833TIP3    H131952   1.305   5.715   6.970
 2833TIP3    H231953   1.244   5.652   7.092
 2834TIP3   OH231954   1.404   5.768   6.607
 2834TIP3    H131955   1.370   5.766   6.517
 2834TIP3    H231956   1.375   5.685   6.645
 2835TIP3   OH231957   0.159   7.310   6.652
 2835TIP3    H131958   0.146   7.283   6.562
 2835TIP3    H231959   0.190   7.400   6.646
 2836TIP3   OH231960   0.887   5.954   6.578
 2836TIP3    H131961   0.873   5.878   6.633
 2836TIP3    H231962   0.907   6.025   6.640
 2837TIP3   OH231963   1.695   7.368   6.746
 2837TIP3    H131964   1.674   7.284   6.705
 2837TIP3    H231965   1.687   7.432   6.676
 2838TIP3   OH231966   0.272   5.775   7.885
 2838TIP3    H131967   0.216   5.701   7.908
 2838TIP3    H231968   0.355   5.757   7.929
 2839TIP3   OH231969   0.488   5.707   8.042
 2839TIP3    H131970   0.575   5.688   8.006
 2839TIP3    H231971   0.463   5.627   8.088
 2840TIP3   OH231972   1.333   5.645   8.091
 2840TIP3    H131973   1.337   5.598   8.174
 2840TIP3    H231974   1.423   5.644   8.058
 2841TIP3   OH231975   1.607   7.268   7.941
 2841TIP3    H131976   1.551   7.257   7.864
 2841TIP3    H231977   1.599   7.361   7.964
 2842TIP3   OH231978   3.064   6.660   6.898
 2842TIP3    H131979   3.036   6.750   6.915
 2842TIP3    H231980   3.008   6.630   6.827
 2843TIP3   OH231981   2.963   6.576   7.300
 2843TIP3    H131982   2.987   6.523   7.376
 2843TIP3    H231983   2.923   6.514   7.239
 2844TIP3   OH231984   2.185   6.545   7.448
 2844TIP3    H131985   2.153   6.455   7.443
 2844TIP3    H231986   2.139   6.583   7.523
 2845TIP3   OH231987   3.308   6.880   7.132
 2845TIP3    H131988   3.283   6.800   7.177
 2845TIP3    H231989   3.376   6.918   7.187
 2846TIP3   OH231990   2.287   6.993   7.239
 2846TIP3    H131991   2.261   6.905   7.213
 2846TIP3    H231992   2.383   6.988   7.246
 2847TIP3   OH231993   1.933   6.326   6.765
 2847TIP3    H131994   1.896   6.410   6.791
 2847TIP3    H231995   1.865   6.285   6.711
 2848TIP3   OH231996   1.997   6.568   7.055
 2848TIP3    H131997   2.045   6.488   7.077
 2848TIP3    H231998   2.066   6.633   7.036
 2849TIP3   OH231999   3.015   7.331   7.092
 2849TIP3    H132000   3.101   7.289   7.082
 2849TIP3    H232001   2.990   7.312   7.182
 2850TIP3   OH232002   2.819   6.807   7.395
 2850TIP3    H132003   2.832   6.785   7.303
 2850TIP3    H232004   2.898   6.776   7.439
 2851TIP3   OH232005   3.672   5.946   7.390
 2851TIP3    H132006   3.675   6.012   7.459
 2851TIP3    H232007   3.745   5.967   7.332
 2852TIP3   OH232008   3.138   6.242   7.338
 2852TIP3    H132009   3.172   6.153   7.341
 2852TIP3    H232010   3.127   6.261   7.245
 2853TIP3   OH232011   2.462   6.031   7.049
 2853TIP3    H132012   2.471   6.096   6.978
 2853TIP3    H232013   2.432   5.952   7.004
 2854TIP3   OH232014   3.250   6.138   6.928
 2854TIP3    H132015   3.302   6.098   6.998
 2854TIP3    H232016   3.314   6.166   6.863
 2855TIP3   OH232017   2.143   6.342   7.128
 2855TIP3    H132018   2.197   6.284   7.182
 2855TIP3    H232019   2.132   6.295   7.046
 2856TIP3   OH232020   2.563   6.394   7.076
 2856TIP3    H132021   2.650   6.386   7.114
 2856TIP3    H232022   2.558   6.323   7.012
 2857TIP3   OH232023   3.671   6.111   7.609
 2857TIP3    H132024   3.622   6.192   7.594
 2857TIP3    H232025   3.730   6.132   7.682
 2858TIP3   OH232026   2.335   5.977   7.473
 2858TIP3    H132027   2.300   6.022   7.396
 2858TIP3    H232028   2.264   5.981   7.537
 2859TIP3   OH232029   2.946   6.916   6.886
 2859TIP3    H132030   2.936   6.924   6.791
 2859TIP3    H232031   3.019   6.974   6.907
 2860TIP3   OH232032   2.548   6.749   7.453
 2860TIP3    H132033   2.500   6.825   7.487
 2860TIP3    H232034   2.634   6.784   7.430
 2861TIP3   OH232035   3.401   6.054   7.142
 2861TIP3    H132036   3.459   5.979   7.154
 2861TIP3    H232037   3.439   6.122   7.197
 2862TIP3   OH232038   2.307   6.143   7.242
 2862TIP3    H132039   2.374   6.178   7.300
 2862TIP3    H232040   2.355   6.098   7.173
 2863TIP3   OH232041   2.417   6.959   7.569
 2863TIP3    H132042   2.429   7.054   7.558
 2863TIP3    H232043   2.327   6.949   7.599
 2864TIP3   OH232044   1.976   6.940   6.699
 2864TIP3    H132045   1.891   6.985   6.689
 2864TIP3    H232046   2.025   6.995   6.760
 2865TIP3   OH232047   3.323   7.108   7.328
 2865TIP3    H132048   3.278   7.094   7.245
 2865TIP3    H232049   3.364   7.194   7.320
 2866TIP3   OH232050   3.411   5.853   7.480
 2866TIP3    H132051   3.340   5.899   7.434
 2866TIP3    H232052   3.491   5.880   7.434
 2867TIP3   OH232053   2.684   5.664   7.233
 2867TIP3    H132054   2.659   5.571   7.230
 2867TIP3    H232055   2.603   5.710   7.254
 2868TIP3   OH232056   3.259   7.221   7.047
 2868TIP3    H132057   3.261   7.145   6.989
 2868TIP3    H232058   3.310   7.288   7.001
 2869TIP3   OH232059   3.256   6.999   6.883
 2869TIP3    H132060   3.300   6.967   6.805
 2869TIP3    H232061   3.283   6.940   6.953
 2870TIP3   OH232062   3.491   6.883   7.683
 2870TIP3    H132063   3.492   6.835   7.600
 2870TIP3    H232064   3.487   6.975   7.657
 2871TIP3   OH232065   2.929   6.596   6.656
 2871TIP3    H132066   2.898   6.530   6.593
 2871TIP3    H232067   3.010   6.630   6.617
 2872TIP3   OH232068   2.934   6.406   6.460
 2872TIP3    H132069   3.013   6.446   6.424
 2872TIP3    H232070   2.924   6.325   6.411
 2873TIP3   OH232071   3.655   6.559   7.531
 2873TIP3    H132072   3.587   6.623   7.513
 2873TIP3    H232073   3.718   6.570   7.460
 2874TIP3   OH232074   3.310   6.633   6.761
 2874TIP3    H132075   3.234   6.638   6.819
 2874TIP3    H232076   3.370   6.574   6.806
 2875TIP3   OH232077   3.261   6.418   7.672
 2875TIP3    H132078   3.279   6.509   7.694
 2875TIP3    H232079   3.189   6.422   7.609
 2876TIP3   OH232080   2.454   6.633   6.984
 2876TIP3    H132081   2.500   6.706   6.942
 2876TIP3    H232082   2.523   6.571   7.008
 2877TIP3   OH232083   2.571   7.010   7.191
 2877TIP3    H132084   2.535   7.039   7.107
 2877TIP3    H232085   2.645   6.955   7.167
 2878TIP3   OH232086   2.471   6.518   7.319
 2878TIP3    H132087   2.500   6.482   7.235
 2878TIP3    H232088   2.514   6.603   7.325
 2879TIP3   OH232089   3.043   7.095   7.468
 2879TIP3    H132090   3.059   7.187   7.489
 2879TIP3    H232091   3.131   7.059   7.453
 2880TIP3   OH232092   2.569   7.003   7.803
 2880TIP3    H132093   2.506   7.064   7.843
 2880TIP3    H232094   2.528   6.976   7.722
 2881TIP3   OH232095   3.177   6.603   6.513
 2881TIP3    H132096   3.240   6.618   6.584
 2881TIP3    H232097   3.197   6.670   6.449
 2882TIP3   OH232098   2.255   6.634   7.714
 2882TIP3    H132099   2.261   6.698   7.785
 2882TIP3    H232100   2.170   6.593   7.726
 2883TIP3   OH232101   2.934   7.274   6.826
 2883TIP3    H132102   2.950   7.280   6.921
 2883TIP3    H232103   2.880   7.351   6.806
 2884TIP3   OH232104   2.374   7.179   7.880
 2884TIP3    H132105   2.369   7.207   7.789
 2884TIP3    H232106   2.283   7.158   7.903
 2885TIP3   OH232107   3.565   5.690   6.533
 2885TIP3    H132108   3.477   5.714   6.561
 2885TIP3    H232109   3.603   5.771   6.500
 2886TIP3   OH232110   2.301   6.518   6.689
 2886TIP3    H132111   2.284   6.609   6.664
 2886TIP3    H232112   2.342   6.479   6.612
 2887TIP3   OH232113   3.685   7.150   6.389
 2887TIP3    H132114   3.711   7.242   6.377
 2887TIP3    H232115   3.692   7.112   6.301
 2888TIP3   OH232116   1.949   6.817   7.602
 2888TIP3    H132117   1.902   6.853   7.527
 2888TIP3    H232118   1.929   6.723   7.600
 2889TIP3   OH232119   1.993   7.064   7.306
 2889TIP3    H132120   2.081   7.046   7.272
 2889TIP3    H232121   2.008   7.118   7.383
 2890TIP3   OH232122   3.751   7.164   7.897
 2890TIP3    H132123   3.741   7.071   7.876
 2890TIP3    H232124   3.665   7.191   7.927
 2891TIP3   OH232125   2.824   7.102   7.755
 2891TIP3    H132126   2.866   7.153   7.824
 2891TIP3    H232127   2.745   7.068   7.796
 2892TIP3   OH232128   2.841   7.518   6.736
 2892TIP3    H132129   2.864   7.512   6.644
 2892TIP3    H232130   2.907   7.576   6.774
 2893TIP3   OH232131   2.256   7.335   6.937
 2893TIP3    H132132   2.291   7.310   7.023
 2893TIP3    H232133   2.202   7.261   6.911
 2894TIP3   OH232134   3.151   7.400   6.698
 2894TIP3    H132135   3.084   7.341   6.732
 2894TIP3    H232136   3.229   7.380   6.749
 2895TIP3   OH232137   3.403   6.277   7.885
 2895TIP3    H132138   3.357   6.327   7.818
 2895TIP3    H232139   3.408   6.188   7.850
 2896TIP3   OH232140   2.169   6.966   7.685
 2896TIP3    H132141   2.185   6.935   7.773
 2896TIP3    H232142   2.095   6.913   7.654
 2897TIP3   OH232143   2.436   5.776   7.307
 2897TIP3    H132144   2.358   5.769   7.250
 2897TIP3    H232145   2.414   5.847   7.367
 2898TIP3   OH232146   2.908   5.760   7.652
 2898TIP3    H132147   2.958   5.721   7.725
 2898TIP3    H232148   2.817   5.747   7.677
 2899TIP3   OH232149   3.190   6.136   7.701
 2899TIP3    H132150   3.133   6.122   7.777
 2899TIP3    H232151   3.204   6.231   7.698
 2900TIP3   OH232152   2.878   6.079   6.376
 2900TIP3    H132153   2.815   6.018   6.414
 2900TIP3    H232154   2.890   6.048   6.286
 2901TIP3   OH232155   2.458   6.270   7.437
 2901TIP3    H132156   2.385   6.274   7.499
 2901TIP3    H232157   2.455   6.354   7.391
 2902TIP3   OH232158   2.455   6.229   6.855
 2902TIP3    H132159   2.394   6.163   6.821
 2902TIP3    H232160   2.514   6.247   6.782
 2903TIP3   OH232161   2.995   6.352   6.799
 2903TIP3    H132162   2.967   6.431   6.753
 2903TIP3    H232163   3.069   6.319   6.747
 2904TIP3   OH232164   2.915   6.345   7.929
 2904TIP3    H132165   2.868   6.271   7.968
 2904TIP3    H232166   3.001   6.343   7.970
 2905TIP3   OH232167   3.114   6.325   7.072
 2905TIP3    H132168   3.073   6.384   7.008
 2905TIP3    H232169   3.149   6.254   7.019
 2906TIP3   OH232170   2.242   6.296   7.605
 2906TIP3    H132171   2.212   6.339   7.686
 2906TIP3    H232172   2.203   6.209   7.609
 2907TIP3   OH232173   1.896   6.007   7.031
 2907TIP3    H132174   1.988   5.991   7.053
 2907TIP3    H232175   1.894   6.011   6.935
 2908TIP3   OH232176   1.985   6.096   6.525
 2908TIP3    H132177   2.077   6.115   6.503
 2908TIP3    H232178   1.944   6.182   6.528
 2909TIP3   OH232179   3.016   6.408   7.512
 2909TIP3    H132180   3.060   6.348   7.452
 2909TIP3    H232181   2.963   6.351   7.568
 2910TIP3   OH232182   2.740   6.084   7.053
 2910TIP3    H132183   2.650   6.051   7.064
 2910TIP3    H232184   2.796   6.011   7.077
 2911TIP3   OH232185   2.164   6.241   6.880
 2911TIP3    H132186   2.084   6.259   6.832
 2911TIP3    H232187   2.183   6.149   6.862
 2912TIP3   OH232188   2.534   6.292   6.605
 2912TIP3    H132189   2.625   6.263   6.595
 2912TIP3    H232190   2.487   6.250   6.534
 2913TIP3   OH232191   3.176   5.955   7.346
 2913TIP3    H132192   3.086   5.955   7.379
 2913TIP3    H232193   3.170   5.909   7.262
 2914TIP3   OH232194   3.433   7.571   7.984
 2914TIP3    H132195   3.455   7.580   7.892
 2914TIP3    H232196   3.517   7.574   8.030
 2915TIP3   OH232197   2.228   6.809   7.923
 2915TIP3    H132198   2.296   6.804   7.991
 2915TIP3    H232199   2.146   6.805   7.972
 2916TIP3   OH232200   2.808   6.353   7.195
 2916TIP3    H132201   2.856   6.298   7.133
 2916TIP3    H232202   2.789   6.295   7.269
 2917TIP3   OH232203   2.260   5.984   6.837
 2917TIP3    H132204   2.221   5.898   6.856
 2917TIP3    H232205   2.305   5.972   6.754
 2918TIP3   OH232206   2.727   6.212   7.420
 2918TIP3    H132207   2.634   6.229   7.436
 2918TIP3    H232208   2.768   6.220   7.506
 2919TIP3   OH232209   2.695   6.780   6.598
 2919TIP3    H132210   2.660   6.742   6.518
 2919TIP3    H232211   2.762   6.718   6.627
 2920TIP3   OH232212   3.471   6.746   7.449
 2920TIP3    H132213   3.526   6.795   7.388
 2920TIP3    H232214   3.395   6.720   7.396
 2921TIP3   OH232215   3.116   6.049   6.531
 2921TIP3    H132216   3.048   6.049   6.464
 2921TIP3    H232217   3.150   6.139   6.530
 2922TIP3   OH232218   2.790   6.791   7.707
 2922TIP3    H132219   2.766   6.699   7.699
 2922TIP3    H232220   2.859   6.793   7.772
 2923TIP3   OH232221   3.214   6.312   6.626
 2923TIP3    H132222   3.305   6.287   6.639
 2923TIP3    H232223   3.218   6.391   6.572
 2924TIP3   OH232224   2.265   6.715   7.176
 2924TIP3    H132225   2.329   6.698   7.107
 2924TIP3    H232226   2.283   6.649   7.243
 2925TIP3   OH232227   2.923   6.946   6.617
 2925TIP3    H132228   2.955   7.004   6.547
 2925TIP3    H232229   2.851   6.897   6.576
 2926TIP3   OH232230   2.004   6.523   7.703
 2926TIP3    H132231   1.979   6.484   7.787
 2926TIP3    H232232   1.925   6.518   7.650
 2927TIP3   OH232233   2.734   6.552   7.929
 2927TIP3    H132234   2.780   6.474   7.899
 2927TIP3    H232235   2.797   6.597   7.985
 2928TIP3   OH232236   3.167   7.071   7.748
 2928TIP3    H132237   3.126   6.989   7.775
 2928TIP3    H232238   3.210   7.103   7.826
 2929TIP3   OH232239   3.681   6.249   6.577
 2929TIP3    H132240   3.612   6.268   6.514
 2929TIP3    H232241   3.763   6.261   6.528
 2930TIP3   OH232242   3.723   6.895   7.831
 2930TIP3    H132243   3.633   6.887   7.801
 2930TIP3    H232244   3.776   6.867   7.756
 2931TIP3   OH232245   3.565   7.094   6.629
 2931TIP3    H132246   3.495   7.030   6.619
 2931TIP3    H232247   3.598   7.109   6.541
 2932TIP3   OH232248   3.242   6.661   7.299
 2932TIP3    H132249   3.149   6.642   7.286
 2932TIP3    H232250   3.287   6.587   7.258
 2933TIP3   OH232251   2.469   7.097   6.957
 2933TIP3    H132252   2.501   7.177   6.915
 2933TIP3    H232253   2.435   7.045   6.884
 2934TIP3   OH232254   2.663   6.828   6.896
 2934TIP3    H132255   2.652   6.831   6.801
 2934TIP3    H232256   2.754   6.855   6.910
 2935TIP3   OH232257   2.716   7.245   7.548
 2935TIP3    H132258   2.768   7.321   7.522
 2935TIP3    H232259   2.758   7.212   7.627
 2936TIP3   OH232260   2.507   7.341   6.828
 2936TIP3    H132261   2.414   7.348   6.850
 2936TIP3    H232262   2.548   7.416   6.871
 2937TIP3   OH232263   3.051   6.791   7.546
 2937TIP3    H132264   3.068   6.771   7.638
 2937TIP3    H232265   3.129   6.761   7.499
 2938TIP3   OH232266   3.301   7.318   7.732
 2938TIP3    H132267   3.231   7.258   7.706
 2938TIP3    H232268   3.300   7.386   7.666
 2939TIP3   OH232269   3.763   7.420   6.382
 2939TIP3    H132270   3.820   7.469   6.323
 2939TIP3    H232271   3.691   7.481   6.401
 2940TIP3   OH232272   2.120   6.043   7.638
 2940TIP3    H132273   2.032   6.066   7.609
 2940TIP3    H232274   2.107   5.973   7.701
 2941TIP3   OH232275   3.376   6.877   6.638
 2941TIP3    H132276   3.362   6.790   6.676
 2941TIP3    H232277   3.340   6.871   6.550
 2942TIP3   OH232278   2.100   7.207   7.524
 2942TIP3    H132279   2.130   7.137   7.583
 2942TIP3    H232280   2.106   7.287   7.577
 2943TIP3   OH232281   2.667   7.018   6.273
 2943TIP3    H132282   2.637   6.953   6.208
 2943TIP3    H232283   2.603   7.012   6.343
 2944TIP3   OH232284   2.518   6.997   6.521
 2944TIP3    H132285   2.578   6.927   6.547
 2944TIP3    H232286   2.562   7.078   6.549
 2945TIP3   OH232287   2.262   6.771   6.602
 2945TIP3    H132288   2.201   6.844   6.594
 2945TIP3    H232289   2.313   6.773   6.520
 2946TIP3   OH232290   2.972   6.017   7.573
 2946TIP3    H132291   3.060   6.038   7.604
 2946TIP3    H232292   2.957   5.928   7.603
 2947TIP3   OH232293   3.078   5.969   6.787
 2947TIP3    H132294   3.090   5.992   6.695
 2947TIP3    H232295   3.133   6.030   6.835
 2948TIP3   OH232296   2.889   7.231   6.545
 2948TIP3    H132297   2.794   7.221   6.551
 2948TIP3    H232298   2.920   7.217   6.635
 2949TIP3   OH232299   2.764   6.192   6.794
 2949TIP3    H132300   2.845   6.241   6.788
 2949TIP3    H232301   2.766   6.152   6.881
 2950TIP3   OH232302   2.854   6.249   7.668
 2950TIP3    H132303   2.880   6.272   7.757
 2950TIP3    H232304   2.893   6.163   7.652
 2951TIP3   OH232305   2.844   5.840   6.835
 2951TIP3    H132306   2.853   5.845   6.930
 2951TIP3    H232307   2.923   5.884   6.801
 2952TIP3   OH232308   2.611   7.249   6.591
 2952TIP3    H132309   2.604   7.325   6.533
 2952TIP3    H232310   2.582   7.281   6.677
 2953TIP3   OH232311   2.409   6.004   6.610
 2953TIP3    H132312   2.392   6.050   6.528
 2953TIP3    H232313   2.501   5.977   6.605
 2954TIP3   OH232314   3.443   6.031   7.759
 2954TIP3    H132315   3.356   6.035   7.718
 2954TIP3    H232316   3.503   6.028   7.685
 2955TIP3   OH232317   3.351   6.437   7.175
 2955TIP3    H132318   3.272   6.391   7.147
 2955TIP3    H232319   3.403   6.370   7.220
 2956TIP3   OH232320   2.037   6.292   6.314
 2956TIP3    H132321   2.129   6.274   6.298
 2956TIP3    H232322   1.990   6.218   6.275
 2957TIP3   OH232323   3.434   7.360   7.347
 2957TIP3    H132324   3.418   7.424   7.278
 2957TIP3    H232325   3.529   7.354   7.353
 2958TIP3   OH232326   2.166   5.775   7.215
 2958TIP3    H132327   2.156   5.765   7.120
 2958TIP3    H232328   2.144   5.689   7.251
 2959TIP3   OH232329   2.059   7.160   6.848
 2959TIP3    H132330   2.005   7.191   6.922
 2959TIP3    H232331   2.039   7.221   6.777
 2960TIP3   OH232332   1.999   7.404   8.002
 2960TIP3    H132333   2.077   7.371   8.047
 2960TIP3    H232334   1.955   7.325   7.969
 2961TIP3   OH232335   2.472   7.248   8.126
 2961TIP3    H132336   2.549   7.193   8.141
 2961TIP3    H232337   2.445   7.228   8.036
 2962TIP3   OH232338   3.108   7.177   8.029
 2962TIP3    H132339   3.103   7.087   8.060
 2962TIP3    H232340   3.190   7.210   8.065
 2963TIP3   OH232341   1.985   6.807   8.061
 2963TIP3    H132342   1.946   6.722   8.083
 2963TIP3    H232343   1.928   6.841   7.992
 2964TIP3   OH232344   2.637   6.814   7.988
 2964TIP3    H132345   2.626   6.870   7.911
 2964TIP3    H232346   2.671   6.732   7.953
 2965TIP3   OH232347   3.290   6.689   7.711
 2965TIP3    H132348   3.363   6.750   7.708
 2965TIP3    H232349   3.223   6.734   7.763
 2966TIP3   OH232350   2.155   6.429   7.997
 2966TIP3    H132351   2.233   6.375   8.012
 2966TIP3    H232352   2.143   6.477   8.079
 2967TIP3   OH232353   2.519   6.447   7.731
 2967TIP3    H132354   2.530   6.474   7.823
 2967TIP3    H232355   2.604   6.464   7.691
 2968TIP3   OH232356   2.931   6.635   8.092
 2968TIP3    H132357   2.978   6.685   8.025
 2968TIP3    H232358   2.998   6.581   8.134
 2969TIP3   OH232359   3.635   6.638   6.262
 2969TIP3    H132360   3.648   6.618   6.169
 2969TIP3    H232361   3.573   6.710   6.263
 2970TIP3   OH232362   2.540   6.168   7.816
 2970TIP3    H132363   2.557   6.101   7.750
 2970TIP3    H232364   2.534   6.250   7.767
 2971TIP3   OH232365   2.584   6.003   7.591
 2971TIP3    H132366   2.647   6.027   7.523
 2971TIP3    H232367   2.500   5.999   7.545
 2972TIP3   OH232368   2.716   6.540   7.571
 2972TIP3    H132369   2.794   6.490   7.546
 2972TIP3    H232370   2.713   6.612   7.508
 2973TIP3   OH232371   3.148   6.307   8.097
 2973TIP3    H132372   3.176   6.226   8.138
 2973TIP3    H232373   3.227   6.344   8.059
 2974TIP3   OH232374   3.281   6.609   8.000
 2974TIP3    H132375   3.220   6.663   7.951
 2974TIP3    H232376   3.360   6.606   7.945
 2975TIP3   OH232377   2.371   6.222   8.034
 2975TIP3    H132378   2.295   6.166   8.020
 2975TIP3    H232379   2.426   6.208   7.957
 2976TIP3   OH232380   2.628   5.740   7.671
 2976TIP3    H132381   2.613   5.830   7.644
 2976TIP3    H232382   2.563   5.689   7.623
 2977TIP3   OH232383   2.754   6.133   7.997
 2977TIP3    H132384   2.708   6.106   8.076
 2977TIP3    H232385   2.685   6.139   7.931
 2978TIP3   OH232386   3.008   6.067   7.894
 2978TIP3    H132387   2.920   6.077   7.931
 2978TIP3    H232388   3.053   6.007   7.954
 2979TIP3   OH232389   3.118   5.908   8.083
 2979TIP3    H132390   3.155   5.819   8.085
 2979TIP3    H232391   3.167   5.956   8.150
 2980TIP3   OH232392   2.161   6.039   8.006
 2980TIP3    H132393   2.157   5.962   7.949
 2980TIP3    H232394   2.174   6.003   8.094
 2981TIP3   OH232395   2.609   5.660   7.934
 2981TIP3    H132396   2.672   5.589   7.928
 2981TIP3    H232397   2.606   5.698   7.846
 2982TIP3   OH232398   2.635   5.786   8.181
 2982TIP3    H132399   2.634   5.741   8.096
 2982TIP3    H232400   2.619   5.878   8.159
 2983TIP3   OH232401   2.629   7.460   6.413
 2983TIP3    H132402   2.724   7.460   6.425
 2983TIP3    H232403   2.617   7.452   6.318
 2984TIP3   OH232404   1.909   7.456   6.890
 2984TIP3    H132405   1.843   7.424   6.829
 2984TIP3    H232406   1.912   7.390   6.959
 2985TIP3   OH232407   1.941   7.268   7.085
 2985TIP3    H132408   1.883   7.207   7.131
 2985TIP3    H232409   2.002   7.299   7.151
 2986TIP3   OH232410   3.703   7.379   7.378
 2986TIP3    H132411   3.721   7.388   7.472
 2986TIP3    H232412   3.758   7.446   7.337
 2987TIP3   OH232413   3.664   7.322   7.667
 2987TIP3    H132414   3.616   7.253   7.622
 2987TIP3    H232415   3.718   7.277   7.732
 2988TIP3   OH232416   3.536   6.919   8.180
 2988TIP3    H132417   3.450   6.941   8.218
 2988TIP3    H232418   3.588   6.999   8.190
 2989TIP3   OH232419   3.713   6.786   6.651
 2989TIP3    H132420   3.637   6.842   6.664
 2989TIP3    H232421   3.714   6.728   6.727
 2990TIP3   OH232422   3.705   6.595   6.858
 2990TIP3    H132423   3.623   6.551   6.879
 2990TIP3    H232424   3.756   6.589   6.939
 2991TIP3   OH232425   3.666   6.877   7.310
 2991TIP3    H132426   3.726   6.802   7.304
 2991TIP3    H232427   3.722   6.953   7.296
 2992TIP3   OH232428   3.475   7.136   7.574
 2992TIP3    H132429   3.407   7.192   7.611
 2992TIP3    H232430   3.445   7.117   7.485
 2993TIP3   OH232431   3.794   6.590   6.475
 2993TIP3    H132432   3.734   6.592   6.400
 2993TIP3    H232433   3.751   6.644   6.541
 2994TIP3   OH232434   3.468   6.455   6.912
 2994TIP3    H132435   3.469   6.365   6.877
 2994TIP3    H232436   3.438   6.445   7.002
 2995TIP3   OH232437   1.944   6.637   7.313
 2995TIP3    H132438   1.934   6.611   7.221
 2995TIP3    H232439   2.038   6.630   7.330
 2996TIP3   OH232440   3.553   6.602   7.882
 2996TIP3    H132441   3.594   6.517   7.897
 2996TIP3    H232442   3.598   6.638   7.806
 2997TIP3   OH232443   3.657   6.356   7.941
 2997TIP3    H132444   3.573   6.317   7.917
 2997TIP3    H232445   3.722   6.292   7.911
 2998TIP3   OH232446   3.385   6.037   6.255
 2998TIP3    H132447   3.440   5.959   6.249
 2998TIP3    H232448   3.297   6.006   6.231
 2999TIP3   OH232449   3.468   6.206   6.761
 2999TIP3    H132450   3.475   6.110   6.763
 2999TIP3    H232451   3.539   6.233   6.703
 3000TIP3   OH232452   3.513   6.249   7.303
 3000TIP3    H132453   3.606   6.265   7.289
 3000TIP3    H232454   3.500   6.261   7.397
 3001TIP3   OH232455   3.512   6.330   7.572
 3001TIP3    H132456   3.426   6.363   7.600
 3001TIP3    H232457   3.564   6.409   7.558
 3002TIP3   OH232458   1.935   6.147   7.884
 3002TIP3    H132459   2.018   6.124   7.925
 3002TIP3    H232460   1.873   6.081   7.916
 3003TIP3   OH232461   3.719   5.746   8.083
 3003TIP3    H132462   3.790   5.689   8.055
 3003TIP3    H232463   3.721   5.820   8.022
 3004TIP3   OH232464   3.490   5.931   6.767
 3004TIP3    H132465   3.526   5.883   6.842
 3004TIP3    H232466   3.428   5.870   6.727
 3005TIP3   OH232467   2.063   6.022   7.293
 3005TIP3    H132468   2.078   5.929   7.279
 3005TIP3    H232469   2.144   6.064   7.265
 3006TIP3   OH232470   1.922   6.263   7.305
 3006TIP3    H132471   1.959   6.175   7.313
 3006TIP3    H232472   1.970   6.303   7.233
 3007TIP3   OH232473   3.624   5.985   7.961
 3007TIP3    H132474   3.572   6.001   8.039
 3007TIP3    H232475   3.560   5.984   7.889
 3008TIP3   OH232476   3.704   5.922   6.402
 3008TIP3    H132477   3.784   5.950   6.445
 3008TIP3    H232478   3.648   6.000   6.402
 3009TIP3   OH232479   1.883   5.984   6.759
 3009TIP3    H132480   1.797   5.950   6.737
 3009TIP3    H232481   1.921   6.008   6.675
 3010TIP3   OH232482   3.371   7.423   6.882
 3010TIP3    H132483   3.438   7.377   6.832
 3010TIP3    H232484   3.414   7.502   6.914
 3011TIP3   OH232485   1.897   5.749   7.553
 3011TIP3    H132486   1.830   5.733   7.619
 3011TIP3    H232487   1.858   5.815   7.495
 3012TIP3   OH232488   2.123   7.113   7.973
 3012TIP3    H132489   2.034   7.129   7.941
 3012TIP3    H232490   2.111   7.065   8.054
 3013TIP3   OH232491   2.446   7.230   7.609
 3013TIP3    H132492   2.412   7.312   7.574
 3013TIP3    H232493   2.541   7.236   7.597
 3014TIP3   OH232494   2.845   7.374   7.904
 3014TIP3    H132495   2.850   7.338   7.993
 3014TIP3    H232496   2.934   7.403   7.885
 3015TIP3   OH232497   3.096   7.478   7.863
 3015TIP3    H132498   3.169   7.423   7.835
 3015TIP3    H232499   3.122   7.511   7.949
 3016TIP3   OH232500   3.556   5.698   7.722
 3016TIP3    H132501   3.499   5.726   7.650
 3016TIP3    H232502   3.588   5.612   7.695
 3017TIP3   OH232503   2.123   7.472   7.624
 3017TIP3    H132504   2.045   7.503   7.578
 3017TIP3    H232505   2.124   7.523   7.705
 3018TIP3   OH232506   2.380   7.481   7.525
 3018TIP3    H132507   2.289   7.484   7.553
 3018TIP3    H232508   2.385   7.542   7.451
 3019TIP3   OH232509   2.853   7.465   7.445
 3019TIP3    H132510   2.799   7.503   7.375
 3019TIP3    H232511   2.857   7.533   7.512
 3020TIP3   OH232512   3.090   7.357   7.529
 3020TIP3    H132513   3.009   7.396   7.496
 3020TIP3    H232514   3.155   7.427   7.521
 3021TIP3   OH232515   3.323   7.521   7.537
 3021TIP3    H132516   3.316   7.608   7.499
 3021TIP3    H232517   3.361   7.467   7.468
 3022TIP3   OH232518   2.111   7.358   7.286
 3022TIP3    H132519   2.097   7.314   7.370
 3022TIP3    H232520   2.197   7.328   7.257
 3023TIP3   OH232521   2.344   7.265   7.190
 3023TIP3    H132522   2.332   7.171   7.196
 3023TIP3    H232523   2.434   7.280   7.221
 3024TIP3   OH232524   2.602   7.267   7.296
 3024TIP3    H132525   2.606   7.179   7.259
 3024TIP3    H232526   2.639   7.257   7.384
 3025TIP3   OH232527   2.871   5.842   7.112
 3025TIP3    H132528   2.824   5.775   7.162
 3025TIP3    H232529   2.963   5.816   7.118
 3026TIP3   OH232530   3.430   5.707   7.165
 3026TIP3    H132531   3.493   5.751   7.108
 3026TIP3    H232532   3.345   5.744   7.139
 3027TIP3   OH232533   3.613   5.804   6.984
 3027TIP3    H132534   3.673   5.739   6.948
 3027TIP3    H232535   3.668   5.880   7.003
 3028TIP3   OH232536   2.140   5.741   6.941
 3028TIP3    H132537   2.051   5.715   6.915
 3028TIP3    H232538   2.191   5.661   6.935
 3029TIP3   OH232539   2.044   5.707   6.504
 3029TIP3    H132540   2.106   5.705   6.431
 3029TIP3    H232541   2.063   5.790   6.549
 3030TIP3   OH232542   2.604   5.738   6.947
 3030TIP3    H132543   2.670   5.770   6.886
 3030TIP3    H232544   2.653   5.715   7.026
 3031TIP3   OH232545   3.146   5.766   7.101
 3031TIP3    H132546   3.159   5.772   7.007
 3031TIP3    H232547   3.126   5.674   7.117
 3032TIP3   OH232548   3.313   5.748   6.638
 3032TIP3    H132549   3.246   5.805   6.602
 3032TIP3    H232550   3.270   5.663   6.649
 3033TIP3   OH232551   2.020   7.332   6.632
 3033TIP3    H132552   1.947   7.338   6.570
 3033TIP3    H232553   2.053   7.421   6.638
 3034TIP3   OH232554   2.689   5.982   6.626
 3034TIP3    H132555   2.735   5.906   6.663
 3034TIP3    H232556   2.723   6.056   6.676
 3035TIP3   OH232557   2.894   7.503   6.463
 3035TIP3    H132558   2.930   7.542   6.384
 3035TIP3    H232559   2.936   7.417   6.469
 3036TIP3   OH232560   3.594   7.344   6.747
 3036TIP3    H132561   3.595   7.258   6.704
 3036TIP3    H232562   3.594   7.406   6.675
 3037TIP3   OH232563   2.144   5.788   7.880
 3037TIP3    H132564   2.086   5.715   7.902
 3037TIP3    H232565   2.227   5.766   7.923
 3038TIP3   OH232566   2.349   5.704   8.044
 3038TIP3    H132567   2.436   5.681   8.011
 3038TIP3    H232568   2.320   5.624   8.089
 3039TIP3   OH232569   3.218   5.651   8.085
 3039TIP3    H132570   3.221   5.603   8.168
 3039TIP3    H232571   3.308   5.650   8.054
 3040TIP3   OH232572   3.496   7.280   7.936
 3040TIP3    H132573   3.437   7.281   7.861
 3040TIP3    H232574   3.503   7.372   7.962
 3041TIP3   OH232575   4.969   6.651   6.915
 3041TIP3    H132576   4.949   6.744   6.926
 3041TIP3    H232577   4.916   6.624   6.841
 3042TIP3   OH232578   4.816   6.605   7.281
 3042TIP3    H132579   4.829   6.556   7.363
 3042TIP3    H232580   4.784   6.540   7.219
 3043TIP3   OH232581   4.035   6.518   7.453
 3043TIP3    H132582   4.043   6.437   7.503
 3043TIP3    H232583   4.124   6.552   7.447
 3044TIP3   OH232584   5.202   6.878   7.129
 3044TIP3    H132585   5.170   6.803   7.179
 3044TIP3    H232586   5.228   6.942   7.195
 3045TIP3   OH232587   4.161   6.975   7.288
 3045TIP3    H132588   4.154   6.894   7.237
 3045TIP3    H232589   4.215   6.952   7.363
 3046TIP3   OH232590   3.830   6.334   6.797
 3046TIP3    H132591   3.807   6.427   6.800
 3046TIP3    H232592   3.778   6.300   6.724
 3047TIP3   OH232593   3.887   6.563   7.075
 3047TIP3    H132594   3.915   6.473   7.089
 3047TIP3    H232595   3.966   6.610   7.049
 3048TIP3   OH232596   4.920   7.359   7.160
 3048TIP3    H132597   4.970   7.315   7.091
 3048TIP3    H232598   4.904   7.291   7.225
 3049TIP3   OH232599   4.683   6.853   7.316
 3049TIP3    H132600   4.719   6.775   7.274
 3049TIP3    H232601   4.752   6.883   7.375
 3050TIP3   OH232602   5.573   5.969   7.408
 3050TIP3    H132603   5.586   6.037   7.474
 3050TIP3    H232604   5.631   5.995   7.336
 3051TIP3   OH232605   4.999   6.263   7.343
 3051TIP3    H132606   5.029   6.173   7.358
 3051TIP3    H232607   4.984   6.268   7.249
 3052TIP3   OH232608   4.342   6.063   7.053
 3052TIP3    H132609   4.361   6.143   7.004
 3052TIP3    H232610   4.287   6.011   6.994
 3053TIP3   OH232611   5.090   6.101   6.920
 3053TIP3    H132612   5.147   6.066   6.989
 3053TIP3    H232613   5.149   6.129   6.851
 3054TIP3   OH232614   3.991   6.310   7.133
 3054TIP3    H132615   4.058   6.266   7.186
 3054TIP3    H232616   4.012   6.285   7.043
 3055TIP3   OH232617   4.458   6.448   7.094
 3055TIP3    H132618   4.546   6.418   7.118
 3055TIP3    H232619   4.429   6.387   7.027
 3056TIP3   OH232620   5.605   6.146   7.626
 3056TIP3    H132621   5.541   6.205   7.587
 3056TIP3    H232622   5.602   6.166   7.719
 3057TIP3   OH232623   4.224   5.985   7.489
 3057TIP3    H132624   4.194   6.040   7.416
 3057TIP3    H232625   4.153   5.992   7.553
 3058TIP3   OH232626   4.880   6.912   6.875
 3058TIP3    H132627   4.899   6.916   6.781
 3058TIP3    H232628   4.836   6.995   6.894
 3059TIP3   OH232629   4.470   6.747   7.456
 3059TIP3    H132630   4.418   6.821   7.487
 3059TIP3    H232631   4.544   6.786   7.409
 3060TIP3   OH232632   5.266   6.040   7.119
 3060TIP3    H132633   5.246   5.968   7.179
 3060TIP3    H232634   5.318   6.101   7.172
 3061TIP3   OH232635   4.180   6.144   7.264
 3061TIP3    H132636   4.240   6.201   7.313
 3061TIP3    H232637   4.233   6.110   7.193
 3062TIP3   OH232638   4.306   6.962   7.544
 3062TIP3    H132639   4.319   7.056   7.559
 3062TIP3    H232640   4.223   6.942   7.587
 3063TIP3   OH232641   5.242   7.075   7.321
 3063TIP3    H132642   5.148   7.086   7.333
 3063TIP3    H232643   5.274   7.164   7.303
 3064TIP3   OH232644   5.300   5.873   7.477
 3064TIP3    H132645   5.226   5.917   7.435
 3064TIP3    H232646   5.377   5.906   7.431
 3065TIP3   OH232647   4.573   5.697   7.206
 3065TIP3    H132648   4.548   5.605   7.210
 3065TIP3    H232649   4.501   5.744   7.248
 3066TIP3   OH232650   5.067   7.254   6.957
 3066TIP3    H132651   5.102   7.166   6.939
 3066TIP3    H232652   5.141   7.313   6.940
 3067TIP3   OH232653   5.194   7.022   6.894
 3067TIP3    H132654   5.235   6.970   6.824
 3067TIP3    H232655   5.193   6.963   6.969
 3068TIP3   OH232656   5.379   6.883   7.699
 3068TIP3    H132657   5.368   6.813   7.635
 3068TIP3    H232658   5.383   6.963   7.646
 3069TIP3   OH232659   4.837   6.582   6.679
 3069TIP3    H132660   4.769   6.639   6.643
 3069TIP3    H232661   4.895   6.565   6.605
 3070TIP3   OH232662   4.840   6.405   6.347
 3070TIP3    H132663   4.875   6.466   6.283
 3070TIP3    H232664   4.860   6.318   6.312
 3071TIP3   OH232665   5.566   6.547   7.494
 3071TIP3    H132666   5.488   6.601   7.507
 3071TIP3    H232667   5.609   6.586   7.417
 3072TIP3   OH232668   5.209   6.605   6.789
 3072TIP3    H132669   5.130   6.622   6.841
 3072TIP3    H232670   5.258   6.540   6.839
 3073TIP3   OH232671   5.026   6.374   7.712
 3073TIP3    H132672   5.106   6.424   7.726
 3073TIP3    H232673   4.980   6.422   7.643
 3074TIP3   OH232674   4.317   6.648   6.952
 3074TIP3    H132675   4.278   6.611   6.872
 3074TIP3    H232676   4.368   6.576   6.988
 3075TIP3   OH232677   4.509   6.999   7.138
 3075TIP3    H132678   4.521   6.945   7.060
 3075TIP3    H232679   4.563   6.958   7.205
 3076TIP3   OH232680   4.329   6.553   7.316
 3076TIP3    H132681   4.379   6.526   7.239
 3076TIP3    H232682   4.386   6.616   7.360
 3077TIP3   OH232683   4.979   7.112   7.396
 3077TIP3    H132684   4.979   7.176   7.467
 3077TIP3    H232685   4.950   7.030   7.436
 3078TIP3   OH232686   4.471   6.988   7.793
 3078TIP3    H132687   4.407   7.043   7.837
 3078TIP3    H232688   4.427   6.957   7.714
 3079TIP3   OH232689   5.097   6.535   6.545
 3079TIP3    H132690   5.138   6.581   6.618
 3079TIP3    H232691   5.121   6.587   6.468
 3080TIP3   OH232692   4.153   6.613   7.729
 3080TIP3    H132693   4.155   6.682   7.795
 3080TIP3    H232694   4.060   6.591   7.721
 3081TIP3   OH232695   4.748   7.226   6.902
 3081TIP3    H132696   4.839   7.235   6.932
 3081TIP3    H232697   4.739   7.290   6.832
 3082TIP3   OH232698   4.283   7.167   7.893
 3082TIP3    H132699   4.282   7.199   7.803
 3082TIP3    H232700   4.191   7.151   7.914
 3083TIP3   OH232701   5.427   5.704   6.562
 3083TIP3    H132702   5.334   5.723   6.579
 3083TIP3    H232703   5.441   5.731   6.472
 3084TIP3   OH232704   4.205   6.539   6.720
 3084TIP3    H132705   4.151   6.561   6.644
 3084TIP3    H232706   4.237   6.451   6.702
 3085TIP3   OH232707   3.858   6.791   7.611
 3085TIP3    H132708   3.839   6.773   7.519
 3085TIP3    H232709   3.864   6.705   7.652
 3086TIP3   OH232710   3.878   7.068   7.295
 3086TIP3    H132711   3.965   7.033   7.279
 3086TIP3    H232712   3.888   7.120   7.376
 3087TIP3   OH232713   5.599   7.166   7.891
 3087TIP3    H132714   5.601   7.071   7.882
 3087TIP3    H232715   5.510   7.185   7.918
 3088TIP3   OH232716   4.721   7.099   7.754
 3088TIP3    H132717   4.719   7.182   7.802
 3088TIP3    H232718   4.635   7.061   7.770
 3089TIP3   OH232719   4.772   7.447   6.723
 3089TIP3    H132720   4.782   7.455   6.628
 3089TIP3    H232721   4.775   7.537   6.755
 3090TIP3   OH232722   4.141   7.275   6.951
 3090TIP3    H132723   4.080   7.284   7.024
 3090TIP3    H232724   4.091   7.227   6.884
 3091TIP3   OH232725   5.039   7.368   6.672
 3091TIP3    H132726   4.951   7.373   6.708
 3091TIP3    H232727   5.076   7.288   6.710
 3092TIP3   OH232728   5.282   6.297   7.957
 3092TIP3    H132729   5.293   6.367   7.893
 3092TIP3    H232730   5.298   6.216   7.908
 3093TIP3   OH232731   4.068   6.955   7.682
 3093TIP3    H132732   4.087   6.925   7.770
 3093TIP3    H232733   3.996   6.900   7.652
 3094TIP3   OH232734   4.329   5.786   7.324
 3094TIP3    H132735   4.254   5.779   7.266
 3094TIP3    H232736   4.308   5.859   7.382
 3095TIP3   OH232737   4.799   5.764   7.653
 3095TIP3    H132738   4.852   5.724   7.722
 3095TIP3    H232739   4.709   5.749   7.681
 3096TIP3   OH232740   5.085   6.113   7.759
 3096TIP3    H132741   5.024   6.094   7.830
 3096TIP3    H232742   5.071   6.206   7.740
 3097TIP3   OH232743   5.198   6.671   6.327
 3097TIP3    H132744   5.131   6.677   6.258
 3097TIP3    H232745   5.280   6.694   6.284
 3098TIP3   OH232746   4.346   6.300   7.422
 3098TIP3    H132747   4.332   6.323   7.514
 3098TIP3    H232748   4.340   6.384   7.375
 3099TIP3   OH232749   4.340   6.292   6.899
 3099TIP3    H132750   4.245   6.286   6.896
 3099TIP3    H232751   4.368   6.271   6.809
 3100TIP3   OH232752   4.875   6.344   6.810
 3100TIP3    H132753   4.848   6.427   6.771
 3100TIP3    H232754   4.939   6.308   6.749
 3101TIP3   OH232755   4.790   6.365   7.924
 3101TIP3    H132756   4.748   6.288   7.962
 3101TIP3    H232757   4.881   6.360   7.952
 3102TIP3   OH232758   4.965   6.296   7.072
 3102TIP3    H132759   4.935   6.354   7.002
 3102TIP3    H232760   4.997   6.219   7.027
 3103TIP3   OH232761   4.074   6.292   7.604
 3103TIP3    H132762   4.158   6.315   7.645
 3103TIP3    H232763   4.062   6.199   7.623
 3104TIP3   OH232764   3.780   6.011   7.033
 3104TIP3    H132765   3.835   6.015   7.112
 3104TIP3    H232766   3.828   6.061   6.968
 3105TIP3   OH232767   4.855   6.438   7.496
 3105TIP3    H132768   4.915   6.386   7.443
 3105TIP3    H232769   4.810   6.374   7.552
 3106TIP3   OH232770   4.634   6.005   7.026
 3106TIP3    H132771   4.543   6.014   7.055
 3106TIP3    H232772   4.683   5.984   7.106
 3107TIP3   OH232773   4.070   6.227   6.888
 3107TIP3    H132774   3.999   6.258   6.832
 3107TIP3    H232775   4.092   6.140   6.853
 3108TIP3   OH232776   4.323   6.218   6.632
 3108TIP3    H132777   4.388   6.155   6.601
 3108TIP3    H232778   4.247   6.203   6.576
 3109TIP3   OH232779   5.038   5.979   7.360
 3109TIP3    H132780   4.985   5.991   7.438
 3109TIP3    H232781   4.979   5.938   7.297
 3110TIP3   OH232782   5.337   7.559   7.982
 3110TIP3    H132783   5.359   7.580   7.891
 3110TIP3    H232784   5.420   7.567   8.030
 3111TIP3   OH232785   4.115   6.810   7.923
 3111TIP3    H132786   4.181   6.805   7.991
 3111TIP3    H232787   4.032   6.803   7.970
 3112TIP3   OH232788   4.701   6.345   7.191
 3112TIP3    H132789   4.781   6.312   7.150
 3112TIP3    H232790   4.682   6.282   7.261
 3113TIP3   OH232791   4.163   5.960   6.861
 3113TIP3    H132792   4.114   5.880   6.881
 3113TIP3    H232793   4.201   5.944   6.775
 3114TIP3   OH232794   4.603   6.190   7.416
 3114TIP3    H132795   4.517   6.233   7.418
 3114TIP3    H232796   4.646   6.219   7.497
 3115TIP3   OH232797   4.627   6.778   6.631
 3115TIP3    H132798   4.553   6.830   6.600
 3115TIP3    H232799   4.623   6.785   6.726
 3116TIP3   OH232800   5.365   6.745   7.457
 3116TIP3    H132801   5.418   6.796   7.396
 3116TIP3    H232802   5.287   6.721   7.406
 3117TIP3   OH232803   4.948   6.071   6.492
 3117TIP3    H132804   4.929   6.092   6.401
 3117TIP3    H232805   4.985   6.151   6.528
 3118TIP3   OH232806   4.768   6.810   7.744
 3118TIP3    H132807   4.822   6.770   7.811
 3118TIP3    H232808   4.765   6.903   7.768
 3119TIP3   OH232809   5.068   6.277   6.628
 3119TIP3    H132810   5.159   6.255   6.651
 3119TIP3    H232811   5.075   6.361   6.583
 3120TIP3   OH232812   4.164   6.726   7.169
 3120TIP3    H132813   4.210   6.712   7.086
 3120TIP3    H232814   4.200   6.658   7.227
 3121TIP3   OH232815   4.862   6.934   6.603
 3121TIP3    H132816   4.823   7.019   6.581
 3121TIP3    H232817   4.790   6.872   6.591
 3122TIP3   OH232818   3.878   6.557   7.760
 3122TIP3    H132819   3.911   6.516   7.840
 3122TIP3    H232820   3.831   6.487   7.714
 3123TIP3   OH232821   4.581   6.541   7.914
 3123TIP3    H132822   4.561   6.546   7.820
 3123TIP3    H232823   4.661   6.489   7.918
 3124TIP3   OH232824   5.007   7.107   7.743
 3124TIP3    H132825   4.916   7.091   7.717
 3124TIP3    H232826   5.003   7.113   7.839
 3125TIP3   OH232827   5.606   6.891   7.842
 3125TIP3    H132828   5.517   6.893   7.806
 3125TIP3    H232829   5.661   6.861   7.770
 3126TIP3   OH232830   5.409   7.130   6.617
 3126TIP3    H132831   5.373   7.043   6.637
 3126TIP3    H232832   5.388   7.144   6.524
 3127TIP3   OH232833   5.120   6.664   7.292
 3127TIP3    H132834   5.028   6.652   7.272
 3127TIP3    H232835   5.163   6.585   7.259
 3128TIP3   OH232836   4.357   7.045   6.824
 3128TIP3    H132837   4.416   7.089   6.763
 3128TIP3    H232838   4.289   7.007   6.769
 3129TIP3   OH232839   4.065   6.559   6.472
 3129TIP3    H132840   4.083   6.486   6.413
 3129TIP3    H232841   3.969   6.564   6.476
 3130TIP3   OH232842   4.515   6.836   6.906
 3130TIP3    H132843   4.462   6.904   6.864
 3130TIP3    H232844   4.455   6.763   6.919
 3131TIP3   OH232845   4.605   7.246   7.538
 3131TIP3    H132846   4.658   7.323   7.518
 3131TIP3    H232847   4.663   7.190   7.590
 3132TIP3   OH232848   4.407   7.334   6.851
 3132TIP3    H132849   4.319   7.364   6.828
 3132TIP3    H232850   4.452   7.412   6.884
 3133TIP3   OH232851   4.894   6.868   7.502
 3133TIP3    H132852   4.854   6.837   7.583
 3133TIP3    H232853   4.959   6.802   7.480
 3134TIP3   OH232854   5.186   7.316   7.729
 3134TIP3    H132855   5.123   7.246   7.714
 3134TIP3    H232856   5.180   7.371   7.651
 3135TIP3   OH232857   5.548   7.445   6.460
 3135TIP3    H132858   5.617   7.486   6.408
 3135TIP3    H232859   5.467   7.470   6.416
 3136TIP3   OH232860   4.026   6.026   7.687
 3136TIP3    H132861   3.947   6.065   7.724
 3136TIP3    H232862   4.033   5.940   7.729
 3137TIP3   OH232863   5.318   6.852   6.705
 3137TIP3    H132864   5.262   6.777   6.723
 3137TIP3    H232865   5.406   6.815   6.695
 3138TIP3   OH232866   3.992   7.195   7.539
 3138TIP3    H132867   4.018   7.115   7.585
 3138TIP3    H232868   4.007   7.265   7.603
 3139TIP3   OH232869   4.552   7.112   6.248
 3139TIP3    H132870   4.572   7.058   6.171
 3139TIP3    H232871   4.460   7.136   6.237
 3140TIP3   OH232872   4.463   7.006   6.540
 3140TIP3    H132873   4.544   7.005   6.490
 3140TIP3    H232874   4.437   7.098   6.542
 3141TIP3   OH232875   4.887   6.018   7.590
 3141TIP3    H132876   4.960   6.036   7.650
 3141TIP3    H232877   4.854   5.932   7.616
 3142TIP3   OH232878   4.962   5.934   6.729
 3142TIP3    H132879   4.951   5.980   6.645
 3142TIP3    H232880   4.990   6.003   6.790
 3143TIP3   OH232881   4.718   7.159   6.547
 3143TIP3    H132882   4.637   7.207   6.566
 3143TIP3    H232883   4.750   7.198   6.466
 3144TIP3   OH232884   4.668   6.159   6.796
 3144TIP3    H132885   4.738   6.225   6.798
 3144TIP3    H232886   4.666   6.123   6.884
 3145TIP3   OH232887   4.738   6.250   7.656
 3145TIP3    H132888   4.765   6.281   7.743
 3145TIP3    H232889   4.788   6.169   7.643
 3146TIP3   OH232890   4.722   5.829   6.820
 3146TIP3    H132891   4.695   5.897   6.881
 3146TIP3    H232892   4.805   5.860   6.785
 3147TIP3   OH232893   4.468   7.279   6.582
 3147TIP3    H132894   4.482   7.356   6.526
 3147TIP3    H232895   4.461   7.315   6.670
 3148TIP3   OH232896   5.347   6.041   7.761
 3148TIP3    H132897   5.252   6.057   7.762
 3148TIP3    H232898   5.366   6.016   7.671
 3149TIP3   OH232899   5.218   6.424   7.185
 3149TIP3    H132900   5.134   6.381   7.166
 3149TIP3    H232901   5.270   6.357   7.228
 3150TIP3   OH232902   5.343   7.333   7.338
 3150TIP3    H132903   5.316   7.402   7.277
 3150TIP3    H232904   5.438   7.341   7.343
 3151TIP3   OH232905   4.075   5.764   7.206
 3151TIP3    H132906   4.065   5.760   7.111
 3151TIP3    H232907   4.043   5.679   7.237
 3152TIP3   OH232908   3.959   7.152   6.790
 3152TIP3    H132909   3.878   7.102   6.801
 3152TIP3    H232910   3.937   7.219   6.726
 3153TIP3   OH232911   3.877   7.401   7.994
 3153TIP3    H132912   3.952   7.377   8.049
 3153TIP3    H232913   3.845   7.318   7.959
 3154TIP3   OH232914   4.369   7.251   8.145
 3154TIP3    H132915   4.435   7.185   8.164
 3154TIP3    H232916   4.338   7.230   8.057
 3155TIP3   OH232917   4.774   7.266   6.299
 3155TIP3    H132918   4.693   7.219   6.277
 3155TIP3    H232919   4.834   7.245   6.228
 3156TIP3   OH232920   4.986   7.140   8.021
 3156TIP3    H132921   4.965   7.052   8.053
 3156TIP3    H232922   5.071   7.160   8.061
 3157TIP3   OH232923   3.866   6.803   8.052
 3157TIP3    H132924   3.826   6.719   8.076
 3157TIP3    H232925   3.812   6.836   7.980
 3158TIP3   OH232926   4.533   6.804   7.994
 3158TIP3    H132927   4.526   6.848   7.910
 3158TIP3    H232928   4.563   6.716   7.973
 3159TIP3   OH232929   5.090   6.814   7.781
 3159TIP3    H132930   5.157   6.757   7.744
 3159TIP3    H232931   5.110   6.901   7.745
 3160TIP3   OH232932   4.012   6.453   7.986
 3160TIP3    H132933   4.096   6.407   7.986
 3160TIP3    H232934   4.011   6.500   8.070
 3161TIP3   OH232935   4.325   6.408   7.677
 3161TIP3    H132936   4.266   6.479   7.702
 3161TIP3    H232937   4.410   6.449   7.664
 3162TIP3   OH232938   4.866   6.675   8.050
 3162TIP3    H132939   4.954   6.648   8.023
 3162TIP3    H232940   4.834   6.602   8.103
 3163TIP3   OH232941   4.413   6.180   7.821
 3163TIP3    H132942   4.441   6.113   7.759
 3163TIP3    H232943   4.398   6.258   7.767
 3164TIP3   OH232944   4.473   6.005   7.603
 3164TIP3    H132945   4.534   6.039   7.537
 3164TIP3    H232946   4.389   6.001   7.558
 3165TIP3   OH232947   4.557   6.545   7.631
 3165TIP3    H132948   4.648   6.529   7.609
 3165TIP3    H232949   4.531   6.619   7.575
 3166TIP3   OH232950   5.026   6.330   8.091
 3166TIP3    H132951   5.033   6.263   8.159
 3166TIP3    H232952   5.109   6.325   8.044
 3167TIP3   OH232953   5.131   6.644   7.989
 3167TIP3    H132954   5.114   6.715   7.927
 3167TIP3    H232955   5.180   6.579   7.939
 3168TIP3   OH232956   4.236   6.247   8.030
 3168TIP3    H132957   4.167   6.183   8.013
 3168TIP3    H232958   4.299   6.233   7.959
 3169TIP3   OH232959   4.518   5.738   7.675
 3169TIP3    H132960   4.503   5.829   7.649
 3169TIP3    H232961   4.454   5.688   7.624
 3170TIP3   OH232962   4.635   6.152   7.997
 3170TIP3    H132963   4.595   6.122   8.078
 3170TIP3    H232964   4.562   6.159   7.935
 3171TIP3   OH232965   4.888   6.059   7.934
 3171TIP3    H132966   4.799   6.082   7.962
 3171TIP3    H232967   4.920   6.001   8.003
 3172TIP3   OH232968   4.979   5.886   8.125
 3172TIP3    H132969   5.011   5.804   8.088
 3172TIP3    H232970   5.028   5.896   8.206
 3173TIP3   OH232971   4.035   6.054   8.008
 3173TIP3    H132972   4.048   5.981   7.947
 3173TIP3    H232973   4.043   6.014   8.095
 3174TIP3   OH232974   4.482   5.672   7.939
 3174TIP3    H132975   4.552   5.607   7.945
 3174TIP3    H232976   4.487   5.704   7.849
 3175TIP3   OH232977   4.501   5.803   8.182
 3175TIP3    H132978   4.504   5.756   8.098
 3175TIP3    H232979   4.500   5.895   8.157
 3176TIP3   OH232980   4.555   7.502   6.444
 3176TIP3    H132981   4.650   7.516   6.443
 3176TIP3    H232982   4.523   7.550   6.368
 3177TIP3   OH232983   3.814   7.490   6.891
 3177TIP3    H132984   3.780   7.443   6.815
 3177TIP3    H232985   3.833   7.422   6.956
 3178TIP3   OH232986   3.885   7.310   7.093
 3178TIP3    H132987   3.832   7.231   7.107
 3178TIP3    H232988   3.914   7.336   7.180
 3179TIP3   OH232989   5.604   7.407   7.347
 3179TIP3    H132990   5.641   7.469   7.410
 3179TIP3    H232991   5.652   7.423   7.266
 3180TIP3   OH232992   5.545   7.326   7.670
 3180TIP3    H132993   5.514   7.267   7.601
 3180TIP3    H232994   5.579   7.268   7.738
 3181TIP3   OH232995   5.373   6.983   8.155
 3181TIP3    H132996   5.399   6.891   8.147
 3181TIP3    H232997   5.442   7.023   8.208
 3182TIP3   OH232998   5.569   6.729   6.721
 3182TIP3    H132999   5.627   6.781   6.665
 3182TIP3    H233000   5.602   6.744   6.810
 3183TIP3   OH233001   5.572   6.868   7.323
 3183TIP3    H133002   5.626   6.793   7.297
 3183TIP3    H233003   5.622   6.944   7.295
 3184TIP3   OH233004   5.389   7.118   7.556
 3184TIP3    H133005   5.311   7.171   7.575
 3184TIP3    H233006   5.374   7.085   7.467
 3185TIP3   OH233007   5.337   6.395   6.932
 3185TIP3    H133008   5.278   6.321   6.947
 3185TIP3    H233009   5.340   6.441   7.016
 3186TIP3   OH233010   3.832   6.653   7.333
 3186TIP3    H133011   3.835   6.628   7.241
 3186TIP3    H233012   3.910   6.612   7.372
 3187TIP3   OH233013   5.495   6.641   7.936
 3187TIP3    H133014   5.431   6.601   7.877
 3187TIP3    H233015   5.529   6.716   7.888
 3188TIP3   OH233016   5.631   6.389   7.883
 3188TIP3    H133017   5.587   6.459   7.930
 3188TIP3    H233018   5.659   6.328   7.951
 3189TIP3   OH233019   5.348   5.991   6.347
 3189TIP3    H133020   5.398   5.919   6.309
 3189TIP3    H233021   5.277   6.005   6.285
 3190TIP3   OH233022   5.300   6.171   6.756
 3190TIP3    H133023   5.344   6.086   6.749
 3190TIP3    H233024   5.365   6.230   6.794
 3191TIP3   OH233025   5.391   6.227   7.284
 3191TIP3    H133026   5.484   6.243   7.267
 3191TIP3    H233027   5.380   6.248   7.377
 3192TIP3   OH233028   5.412   6.326   7.541
 3192TIP3    H133029   5.351   6.364   7.604
 3192TIP3    H233030   5.471   6.397   7.518
 3193TIP3   OH233031   3.820   6.140   7.853
 3193TIP3    H133032   3.896   6.136   7.911
 3193TIP3    H233033   3.757   6.080   7.892
 3194TIP3   OH233034   5.619   5.765   8.089
 3194TIP3    H133035   5.674   5.702   8.042
 3194TIP3    H233036   5.607   5.837   8.027
 3195TIP3   OH233037   5.438   5.932   6.757
 3195TIP3    H133038   5.427   5.883   6.838
 3195TIP3    H233039   5.412   5.872   6.688
 3196TIP3   OH233040   3.934   5.995   7.264
 3196TIP3    H133041   3.978   5.911   7.253
 3196TIP3    H233042   4.004   6.059   7.269
 3197TIP3   OH233043   3.780   6.315   7.312
 3197TIP3    H133044   3.838   6.304   7.237
 3197TIP3    H233045   3.837   6.351   7.381
 3198TIP3   OH233046   5.531   5.992   7.957
 3198TIP3    H133047   5.472   5.998   8.032
 3198TIP3    H233048   5.475   6.002   7.881
 3199TIP3   OH233049   3.794   5.918   6.701
 3199TIP3    H133050   3.706   5.956   6.711
 3199TIP3    H233051   3.842   5.983   6.650
 3200TIP3   OH233052   5.268   7.444   6.907
 3200TIP3    H133053   5.316   7.414   6.830
 3200TIP3    H233054   5.325   7.509   6.948
 3201TIP3   OH233055   3.786   5.749   7.554
 3201TIP3    H133056   3.722   5.751   7.625
 3201TIP3    H233057   3.751   5.809   7.488
 3202TIP3   OH233058   4.025   7.121   7.973
 3202TIP3    H133059   3.932   7.118   7.954
 3202TIP3    H233060   4.034   7.081   8.060
 3203TIP3   OH233061   4.343   7.225   7.622
 3203TIP3    H133062   4.310   7.310   7.595
 3203TIP3    H233063   4.437   7.228   7.603
 3204TIP3   OH233064   4.735   7.341   7.892
 3204TIP3    H133065   4.745   7.311   7.982
 3204TIP3    H233066   4.820   7.380   7.870
 3205TIP3   OH233067   4.979   7.464   7.858
 3205TIP3    H133068   5.049   7.415   7.814
 3205TIP3    H233069   5.018   7.489   7.943
 3206TIP3   OH233070   5.455   5.692   7.720
 3206TIP3    H133071   5.383   5.719   7.663
 3206TIP3    H233072   5.474   5.602   7.693
 3207TIP3   OH233073   4.026   7.495   7.617
 3207TIP3    H133074   3.947   7.523   7.572
 3207TIP3    H233075   4.023   7.541   7.701
 3208TIP3   OH233076   4.287   7.479   7.541
 3208TIP3    H133077   4.195   7.488   7.565
 3208TIP3    H233078   4.296   7.529   7.460
 3209TIP3   OH233079   4.750   7.463   7.444
 3209TIP3    H133080   4.713   7.496   7.362
 3209TIP3    H233081   4.766   7.541   7.497
 3210TIP3   OH233082   4.981   7.353   7.535
 3210TIP3    H133083   4.899   7.384   7.497
 3210TIP3    H233084   5.047   7.415   7.503
 3211TIP3   OH233085   5.222   7.506   7.511
 3211TIP3    H133086   5.213   7.581   7.453
 3211TIP3    H233087   5.266   7.440   7.458
 3212TIP3   OH233088   4.016   7.373   7.324
 3212TIP3    H133089   3.994   7.327   7.405
 3212TIP3    H233090   4.096   7.330   7.293
 3213TIP3   OH233091   4.235   7.231   7.229
 3213TIP3    H133092   4.206   7.144   7.256
 3213TIP3    H233093   4.319   7.243   7.273
 3214TIP3   OH233094   4.503   7.246   7.281
 3214TIP3    H133095   4.535   7.166   7.240
 3214TIP3    H233096   4.538   7.243   7.370
 3215TIP3   OH233097   4.826   5.848   7.194
 3215TIP3    H133098   4.750   5.791   7.179
 3215TIP3    H233099   4.894   5.813   7.137
 3216TIP3   OH233100   5.293   5.702   7.182
 3216TIP3    H133101   5.357   5.734   7.119
 3216TIP3    H233102   5.208   5.716   7.140
 3217TIP3   OH233103   5.480   5.766   6.985
 3217TIP3    H133104   5.549   5.711   6.948
 3217TIP3    H233105   5.525   5.843   7.018
 3218TIP3   OH233106   4.029   5.725   6.935
 3218TIP3    H133107   3.937   5.711   6.910
 3218TIP3    H233108   4.071   5.640   6.921
 3219TIP3   OH233109   3.961   5.754   6.529
 3219TIP3    H133110   3.982   5.847   6.518
 3219TIP3    H233111   3.890   5.753   6.594
 3220TIP3   OH233112   4.517   5.667   6.928
 3220TIP3    H133113   4.578   5.720   6.877
 3220TIP3    H233114   4.537   5.688   7.019
 3221TIP3   OH233115   5.042   5.724   7.055
 3221TIP3    H133116   5.049   5.717   6.960
 3221TIP3    H233117   5.002   5.641   7.082
 3222TIP3   OH233118   5.179   5.761   6.681
 3222TIP3    H133119   5.114   5.830   6.696
 3222TIP3    H233120   5.134   5.680   6.703
 3223TIP3   OH233121   3.888   7.354   6.622
 3223TIP3    H133122   3.843   7.350   6.538
 3223TIP3    H233123   3.932   7.439   6.622
 3224TIP3   OH233124   4.535   5.983   6.635
 3224TIP3    H133125   4.588   5.906   6.656
 3224TIP3    H233126   4.582   6.056   6.675
 3225TIP3   OH233127   4.842   7.483   6.449
 3225TIP3    H133128   4.936   7.480   6.468
 3225TIP3    H233129   4.826   7.404   6.397
 3226TIP3   OH233130   5.463   7.381   6.716
 3226TIP3    H133131   5.447   7.289   6.695
 3226TIP3    H233132   5.489   7.420   6.633
 3227TIP3   OH233133   4.033   5.798   7.857
 3227TIP3    H133134   3.972   5.731   7.888
 3227TIP3    H233135   4.114   5.781   7.906
 3228TIP3   OH233136   4.224   5.726   8.036
 3228TIP3    H133137   4.314   5.709   8.008
 3228TIP3    H233138   4.199   5.648   8.085
 3229TIP3   OH233139   4.092   7.427   6.392
 3229TIP3    H133140   4.065   7.338   6.368
 3229TIP3    H233141   4.080   7.478   6.312
 3230TIP3   OH233142   5.101   5.645   8.067
 3230TIP3    H133143   5.092   5.609   8.155
 3230TIP3    H233144   5.195   5.649   8.052
 3231TIP3   OH233145   5.355   7.288   7.941
 3231TIP3    H133146   5.305   7.275   7.860
 3231TIP3    H233147   5.353   7.382   7.955
 3232TIP3   OH233148   6.908   6.671   6.972
 3232TIP3    H133149   6.876   6.744   6.920
 3232TIP3    H233150   6.860   6.595   6.939
 3233TIP3   OH233151   6.699   6.588   7.302
 3233TIP3    H133152   6.743   6.544   7.375
 3233TIP3    H233153   6.659   6.518   7.252
 3234TIP3   OH233154   5.946   6.533   7.434
 3234TIP3    H133155   5.953   6.441   7.458
 3234TIP3    H233156   5.993   6.579   7.504
 3235TIP3   OH233157   7.135   6.878   7.156
 3235TIP3    H133158   7.084   6.805   7.190
 3235TIP3    H233159   7.129   6.945   7.225
 3236TIP3   OH233160   6.060   6.983   7.240
 3236TIP3    H133161   6.031   6.896   7.210
 3236TIP3    H233162   6.151   6.971   7.265
 3237TIP3   OH233163   5.817   6.580   7.052
 3237TIP3    H133164   5.843   6.490   7.070
 3237TIP3    H233165   5.897   6.631   7.065
 3238TIP3   OH233166   6.812   7.361   7.190
 3238TIP3    H133167   6.864   7.317   7.122
 3238TIP3    H233168   6.853   7.335   7.272
 3239TIP3   OH233169   6.561   6.832   7.312
 3239TIP3    H133170   6.598   6.748   7.283
 3239TIP3    H233171   6.626   6.867   7.373
 3240TIP3   OH233172   7.413   5.987   7.400
 3240TIP3    H133173   7.417   6.033   7.484
 3240TIP3    H233174   7.453   6.048   7.338
 3241TIP3   OH233175   6.901   6.244   7.359
 3241TIP3    H133176   6.920   6.150   7.364
 3241TIP3    H233177   6.875   6.257   7.268
 3242TIP3   OH233178   6.257   6.080   7.063
 3242TIP3    H133179   6.259   6.160   7.010
 3242TIP3    H233180   6.208   6.017   7.011
 3243TIP3   OH233181   7.028   6.144   6.956
 3243TIP3    H133182   6.994   6.059   6.930
 3243TIP3    H233183   7.082   6.172   6.881
 3244TIP3   OH233184   5.891   6.321   7.128
 3244TIP3    H133185   5.957   6.279   7.184
 3244TIP3    H233186   5.902   6.279   7.043
 3245TIP3   OH233187   6.359   6.462   7.074
 3245TIP3    H133188   6.442   6.423   7.103
 3245TIP3    H233189   6.321   6.396   7.016
 3246TIP3   OH233190   7.434   6.120   7.642
 3246TIP3    H133191   7.382   6.200   7.632
 3246TIP3    H233192   7.524   6.150   7.647
 3247TIP3   OH233193   6.111   5.983   7.479
 3247TIP3    H133194   6.085   6.043   7.409
 3247TIP3    H233195   6.039   5.987   7.542
 3248TIP3   OH233196   6.808   6.917   6.763
 3248TIP3    H133197   6.844   6.940   6.677
 3248TIP3    H233198   6.872   6.951   6.825
 3249TIP3   OH233199   6.329   6.756   7.443
 3249TIP3    H133200   6.274   6.825   7.479
 3249TIP3    H233201   6.398   6.803   7.396
 3250TIP3   OH233202   7.189   6.039   7.174
 3250TIP3    H133203   7.124   6.065   7.108
 3250TIP3    H233204   7.253   5.987   7.124
 3251TIP3   OH233205   6.079   6.154   7.261
 3251TIP3    H133206   6.133   6.209   7.317
 3251TIP3    H233207   6.139   6.122   7.193
 3252TIP3   OH233208   6.180   6.956   7.566
 3252TIP3    H133209   6.182   7.052   7.563
 3252TIP3    H233210   6.092   6.936   7.597
 3253TIP3   OH233211   5.769   6.908   6.630
 3253TIP3    H133212   5.772   6.947   6.543
 3253TIP3    H233213   5.780   6.982   6.690
 3254TIP3   OH233214   7.108   7.084   7.342
 3254TIP3    H133215   7.013   7.089   7.350
 3254TIP3    H233216   7.135   7.171   7.313
 3255TIP3   OH233217   7.157   5.870   7.458
 3255TIP3    H133218   7.080   5.913   7.421
 3255TIP3    H233219   7.231   5.911   7.413
 3256TIP3   OH233220   6.444   5.653   7.236
 3256TIP3    H133221   6.414   5.562   7.240
 3256TIP3    H233222   6.367   5.705   7.259
 3257TIP3   OH233223   6.957   7.237   6.996
 3257TIP3    H133224   6.969   7.145   6.972
 3257TIP3    H233225   7.037   7.280   6.966
 3258TIP3   OH233226   7.021   6.980   6.927
 3258TIP3    H133227   7.073   6.949   6.852
 3258TIP3    H233228   7.065   6.941   7.003
 3259TIP3   OH233229   7.229   6.876   7.696
 3259TIP3    H133230   7.224   6.819   7.619
 3259TIP3    H233231   7.238   6.964   7.660
 3260TIP3   OH233232   6.696   6.615   6.662
 3260TIP3    H133233   6.635   6.589   6.592
 3260TIP3    H233234   6.783   6.597   6.626
 3261TIP3   OH233235   7.420   6.554   7.507
 3261TIP3    H133236   7.344   6.610   7.490
 3261TIP3    H233237   7.473   6.563   7.428
 3262TIP3   OH233238   7.102   6.582   6.794
 3262TIP3    H133239   7.051   6.618   6.866
 3262TIP3    H233240   7.168   6.527   6.836
 3263TIP3   OH233241   7.022   6.441   7.694
 3263TIP3    H133242   7.020   6.528   7.734
 3263TIP3    H233243   6.955   6.444   7.625
 3264TIP3   OH233244   6.220   6.665   6.947
 3264TIP3    H133245   6.184   6.632   6.865
 3264TIP3    H233246   6.268   6.590   6.983
 3265TIP3   OH233247   6.347   6.987   7.218
 3265TIP3    H133248   6.334   6.993   7.124
 3265TIP3    H233249   6.421   6.928   7.229
 3266TIP3   OH233250   6.233   6.533   7.311
 3266TIP3    H133251   6.285   6.519   7.231
 3266TIP3    H233252   6.271   6.611   7.351
 3267TIP3   OH233253   6.843   7.112   7.397
 3267TIP3    H133254   6.831   7.180   7.463
 3267TIP3    H233255   6.808   7.033   7.437
 3268TIP3   OH233256   6.353   6.973   7.783
 3268TIP3    H133257   6.291   7.028   7.831
 3268TIP3    H233258   6.306   6.947   7.704
 3269TIP3   OH233259   6.950   6.548   6.572
 3269TIP3    H133260   7.001   6.559   6.652
 3269TIP3    H233261   6.999   6.597   6.505
 3270TIP3   OH233262   6.031   6.594   7.701
 3270TIP3    H133263   6.042   6.648   7.779
 3270TIP3    H233264   5.941   6.563   7.705
 3271TIP3   OH233265   6.674   7.288   6.927
 3271TIP3    H133266   6.765   7.260   6.917
 3271TIP3    H233267   6.649   7.318   6.840
 3272TIP3   OH233268   6.165   7.151   7.884
 3272TIP3    H133269   6.164   7.183   7.794
 3272TIP3    H233270   6.073   7.138   7.906
 3273TIP3   OH233271   7.311   5.710   6.506
 3273TIP3    H133272   7.222   5.734   6.531
 3273TIP3    H233273   7.345   5.787   6.461
 3274TIP3   OH233274   6.120   6.575   6.694
 3274TIP3    H133275   6.065   6.628   6.636
 3274TIP3    H233276   6.092   6.485   6.677
 3275TIP3   OH233277   5.739   6.792   7.622
 3275TIP3    H133278   5.694   6.793   7.537
 3275TIP3    H233279   5.752   6.699   7.641
 3276TIP3   OH233280   5.766   7.066   7.284
 3276TIP3    H133281   5.855   7.038   7.260
 3276TIP3    H233282   5.777   7.113   7.366
 3277TIP3   OH233283   7.490   7.160   7.891
 3277TIP3    H133284   7.490   7.064   7.882
 3277TIP3    H233285   7.404   7.181   7.925
 3278TIP3   OH233286   6.599   7.092   7.759
 3278TIP3    H133287   6.593   7.174   7.808
 3278TIP3    H233288   6.511   7.054   7.766
 3279TIP3   OH233289   6.609   7.488   6.707
 3279TIP3    H133290   6.568   7.470   6.622
 3279TIP3    H233291   6.678   7.552   6.688
 3280TIP3   OH233292   6.055   7.327   6.926
 3280TIP3    H133293   6.071   7.295   7.015
 3280TIP3    H233294   5.990   7.266   6.890
 3281TIP3   OH233295   6.887   7.337   6.676
 3281TIP3    H133296   6.805   7.342   6.627
 3281TIP3    H233297   6.939   7.272   6.630
 3282TIP3   OH233298   7.174   6.292   7.931
 3282TIP3    H133299   7.119   6.332   7.864
 3282TIP3    H233300   7.183   6.200   7.903
 3283TIP3   OH233301   5.935   6.963   7.709
 3283TIP3    H133302   5.966   6.910   7.782
 3283TIP3    H233303   5.866   6.909   7.669
 3284TIP3   OH233304   6.210   5.784   7.310
 3284TIP3    H133305   6.132   5.778   7.256
 3284TIP3    H233306   6.195   5.859   7.368
 3285TIP3   OH233307   6.683   5.761   7.647
 3285TIP3    H133308   6.722   5.722   7.725
 3285TIP3    H233309   6.589   5.756   7.662
 3286TIP3   OH233310   6.989   6.147   7.720
 3286TIP3    H133311   6.919   6.133   7.784
 3286TIP3    H233312   6.979   6.239   7.694
 3287TIP3   OH233313   7.119   6.700   6.415
 3287TIP3    H133314   7.079   6.785   6.398
 3287TIP3    H233315   7.210   6.709   6.387
 3288TIP3   OH233316   6.571   6.074   6.470
 3288TIP3    H133317   6.667   6.076   6.465
 3288TIP3    H233318   6.542   6.126   6.396
 3289TIP3   OH233319   6.228   6.295   7.444
 3289TIP3    H133320   6.157   6.299   7.509
 3289TIP3    H233321   6.228   6.382   7.405
 3290TIP3   OH233322   6.211   6.299   6.904
 3290TIP3    H133323   6.117   6.283   6.896
 3290TIP3    H233324   6.245   6.289   6.815
 3291TIP3   OH233325   6.793   6.439   6.861
 3291TIP3    H133326   6.734   6.489   6.805
 3291TIP3    H233327   6.804   6.355   6.817
 3292TIP3   OH233328   6.673   6.363   7.926
 3292TIP3    H133329   6.623   6.287   7.958
 3292TIP3    H233330   6.758   6.355   7.969
 3293TIP3   OH233331   6.848   6.297   7.094
 3293TIP3    H133332   6.818   6.358   7.026
 3293TIP3    H233333   6.900   6.232   7.047
 3294TIP3   OH233334   5.992   6.289   7.591
 3294TIP3    H133335   5.960   6.342   7.664
 3294TIP3    H233336   5.960   6.201   7.610
 3295TIP3   OH233337   5.655   5.965   7.038
 3295TIP3    H133338   5.716   5.997   7.104
 3295TIP3    H233339   5.693   5.993   6.954
 3296TIP3   OH233340   5.780   6.100   6.518
 3296TIP3    H133341   5.737   6.024   6.477
 3296TIP3    H233342   5.825   6.144   6.447
 3297TIP3   OH233343   6.806   6.442   7.514
 3297TIP3    H133344   6.846   6.377   7.456
 3297TIP3    H233345   6.741   6.394   7.564
 3298TIP3   OH233346   6.536   6.038   7.037
 3298TIP3    H133347   6.443   6.048   7.058
 3298TIP3    H233348   6.572   5.990   7.112
 3299TIP3   OH233349   5.948   6.189   6.891
 3299TIP3    H133350   5.876   6.173   6.829
 3299TIP3    H233351   5.994   6.105   6.897
 3300TIP3   OH233352   6.280   6.258   6.642
 3300TIP3    H133353   6.375   6.241   6.641
 3300TIP3    H233354   6.260   6.284   6.552
 3301TIP3   OH233355   6.913   5.961   7.352
 3301TIP3    H133356   6.824   5.967   7.388
 3301TIP3    H233357   6.906   5.897   7.281
 3302TIP3   OH233358   7.218   7.519   8.002
 3302TIP3    H133359   7.248   7.553   7.917
 3302TIP3    H233360   7.293   7.532   8.060
 3303TIP3   OH233361   6.005   6.788   7.916
 3303TIP3    H133362   6.071   6.794   7.985
 3303TIP3    H233363   5.937   6.730   7.952
 3304TIP3   OH233364   6.584   6.351   7.201
 3304TIP3    H133365   6.655   6.305   7.156
 3304TIP3    H233366   6.554   6.289   7.268
 3305TIP3   OH233367   6.083   5.950   6.893
 3305TIP3    H133368   6.038   5.866   6.900
 3305TIP3    H233369   6.127   5.947   6.808
 3306TIP3   OH233370   6.489   6.208   7.424
 3306TIP3    H133371   6.402   6.245   7.435
 3306TIP3    H233372   6.538   6.239   7.501
 3307TIP3   OH233373   6.483   6.776   6.529
 3307TIP3    H133374   6.418   6.709   6.507
 3307TIP3    H233375   6.490   6.829   6.450
 3308TIP3   OH233376   7.217   6.735   7.459
 3308TIP3    H133377   7.271   6.792   7.404
 3308TIP3    H233378   7.141   6.714   7.405
 3309TIP3   OH233379   6.852   6.107   6.434
 3309TIP3    H133380   6.859   6.111   6.338
 3309TIP3    H233381   6.924   6.162   6.465
 3310TIP3   OH233382   6.718   6.832   7.780
 3310TIP3    H133383   6.699   6.782   7.859
 3310TIP3    H233384   6.665   6.912   7.789
 3311TIP3   OH233385   7.041   6.287   6.540
 3311TIP3    H133386   7.092   6.273   6.620
 3311TIP3    H233387   7.002   6.374   6.551
 3312TIP3   OH233388   6.047   6.712   7.164
 3312TIP3    H133389   6.110   6.702   7.093
 3312TIP3    H233390   6.073   6.646   7.229
 3313TIP3   OH233391   5.764   6.521   7.687
 3313TIP3    H133392   5.728   6.475   7.763
 3313TIP3    H233393   5.696   6.511   7.620
 3314TIP3   OH233394   6.448   6.531   7.925
 3314TIP3    H133395   6.384   6.498   7.862
 3314TIP3    H233396   6.529   6.485   7.904
 3315TIP3   OH233397   6.880   7.102   7.751
 3315TIP3    H133398   6.788   7.086   7.729
 3315TIP3    H233399   6.881   7.107   7.847
 3316TIP3   OH233400   7.419   6.302   6.586
 3316TIP3    H133401   7.451   6.236   6.524
 3316TIP3    H233402   7.428   6.385   6.539
 3317TIP3   OH233403   7.461   6.881   7.844
 3317TIP3    H133404   7.370   6.890   7.814
 3317TIP3    H233405   7.509   6.858   7.764
 3318TIP3   OH233406   7.003   6.667   7.288
 3318TIP3    H133407   6.911   6.666   7.260
 3318TIP3    H233408   7.042   6.591   7.244
 3319TIP3   OH233409   6.288   7.057   6.953
 3319TIP3    H133410   6.313   7.142   6.916
 3319TIP3    H233411   6.198   7.044   6.924
 3320TIP3   OH233412   6.433   6.837   6.870
 3320TIP3    H133413   6.392   6.920   6.895
 3320TIP3    H233414   6.368   6.771   6.895
 3321TIP3   OH233415   6.476   7.259   7.549
 3321TIP3    H133416   6.504   7.350   7.556
 3321TIP3    H233417   6.542   7.209   7.597
 3322TIP3   OH233418   6.318   7.315   6.858
 3322TIP3    H133419   6.224   7.333   6.864
 3322TIP3    H233420   6.360   7.398   6.878
 3323TIP3   OH233421   6.763   6.866   7.505
 3323TIP3    H133422   6.743   6.848   7.597
 3323TIP3    H233423   6.825   6.797   7.480
 3324TIP3   OH233424   7.068   7.293   7.721
 3324TIP3    H133425   6.998   7.228   7.716
 3324TIP3    H233426   7.052   7.353   7.649
 3325TIP3   OH233427   5.895   6.025   7.655
 3325TIP3    H133428   5.802   6.045   7.642
 3325TIP3    H233429   5.896   5.956   7.720
 3326TIP3   OH233430   7.147   6.857   6.720
 3326TIP3    H133431   7.153   6.762   6.715
 3326TIP3    H233432   7.115   6.884   6.634
 3327TIP3   OH233433   5.884   7.198   7.525
 3327TIP3    H133434   5.903   7.125   7.584
 3327TIP3    H233435   5.887   7.275   7.581
 3328TIP3   OH233436   6.523   6.936   6.313
 3328TIP3    H133437   6.581   6.950   6.238
 3328TIP3    H233438   6.528   7.017   6.364
 3329TIP3   OH233439   5.978   6.754   6.519
 3329TIP3    H133440   5.884   6.763   6.537
 3329TIP3    H233441   6.016   6.835   6.552
 3330TIP3   OH233442   6.756   6.025   7.593
 3330TIP3    H133443   6.847   6.031   7.620
 3330TIP3    H233444   6.732   5.934   7.612
 3331TIP3   OH233445   6.783   6.060   6.702
 3331TIP3    H133446   6.814   6.062   6.611
 3331TIP3    H233447   6.836   5.992   6.744
 3332TIP3   OH233448   6.549   7.155   6.486
 3332TIP3    H133449   6.463   7.182   6.517
 3332TIP3    H233450   6.591   7.236   6.457
 3333TIP3   OH233451   6.578   6.207   6.812
 3333TIP3    H133452   6.643   6.158   6.762
 3333TIP3    H233453   6.558   6.152   6.888
 3334TIP3   OH233454   6.644   6.271   7.651
 3334TIP3    H133455   6.653   6.289   7.745
 3334TIP3    H233456   6.679   6.182   7.641
 3335TIP3   OH233457   6.636   5.824   6.878
 3335TIP3    H133458   6.613   5.903   6.928
 3335TIP3    H233459   6.731   5.825   6.874
 3336TIP3   OH233460   6.326   7.282   6.577
 3336TIP3    H133461   6.376   7.351   6.535
 3336TIP3    H233462   6.325   7.305   6.670
 3337TIP3   OH233463   6.200   5.973   6.644
 3337TIP3    H133464   6.205   6.061   6.606
 3337TIP3    H233465   6.291   5.947   6.658
 3338TIP3   OH233466   7.226   6.045   7.812
 3338TIP3    H133467   7.143   6.057   7.766
 3338TIP3    H233468   7.293   6.055   7.745
 3339TIP3   OH233469   7.088   6.430   7.173
 3339TIP3    H133470   7.007   6.382   7.155
 3339TIP3    H233471   7.136   6.373   7.233
 3340TIP3   OH233472   7.209   7.348   7.339
 3340TIP3    H133473   7.198   7.408   7.266
 3340TIP3    H233474   7.303   7.334   7.346
 3341TIP3   OH233475   5.958   5.763   7.202
 3341TIP3    H133476   5.945   5.753   7.108
 3341TIP3    H233477   5.925   5.681   7.239
 3342TIP3   OH233478   5.847   7.166   6.839
 3342TIP3    H133479   5.784   7.191   6.908
 3342TIP3    H233480   5.819   7.216   6.762
 3343TIP3   OH233481   5.760   7.372   7.973
 3343TIP3    H133482   5.835   7.316   7.991
 3343TIP3    H233483   5.694   7.313   7.936
 3344TIP3   OH233484   6.264   7.244   8.122
 3344TIP3    H133485   6.331   7.180   8.147
 3344TIP3    H233486   6.233   7.214   8.037
 3345TIP3   OH233487   6.872   7.138   8.027
 3345TIP3    H133488   6.866   7.052   8.069
 3345TIP3    H233489   6.948   7.179   8.068
 3346TIP3   OH233490   5.748   6.836   8.082
 3346TIP3    H133491   5.745   6.743   8.105
 3346TIP3    H233492   5.691   6.844   8.006
 3347TIP3   OH233493   6.425   6.801   7.987
 3347TIP3    H133494   6.406   6.844   7.904
 3347TIP3    H233495   6.440   6.709   7.964
 3348TIP3   OH233496   6.983   6.749   7.757
 3348TIP3    H133497   7.048   6.816   7.736
 3348TIP3    H233498   6.899   6.795   7.757
 3349TIP3   OH233499   5.953   6.484   7.977
 3349TIP3    H133500   5.996   6.404   8.007
 3349TIP3    H233501   5.877   6.494   8.034
 3350TIP3   OH233502   6.311   6.571   6.486
 3350TIP3    H133503   6.258   6.574   6.566
 3350TIP3    H233504   6.286   6.490   6.443
 3351TIP3   OH233505   6.266   6.436   7.731
 3351TIP3    H133506   6.184   6.484   7.717
 3351TIP3    H233507   6.328   6.476   7.670
 3352TIP3   OH233508   6.777   6.677   8.049
 3352TIP3    H133509   6.858   6.634   8.020
 3352TIP3    H233510   6.736   6.613   8.107
 3353TIP3   OH233511   7.393   6.755   6.271
 3353TIP3    H133512   7.444   6.749   6.190
 3353TIP3    H233513   7.432   6.828   6.319
 3354TIP3   OH233514   6.331   6.178   7.808
 3354TIP3    H133515   6.341   6.119   7.734
 3354TIP3    H233516   6.309   6.263   7.769
 3355TIP3   OH233517   6.364   6.006   7.584
 3355TIP3    H133518   6.419   6.051   7.519
 3355TIP3    H233519   6.277   6.005   7.544
 3356TIP3   OH233520   6.458   6.565   7.589
 3356TIP3    H133521   6.548   6.566   7.557
 3356TIP3    H233522   6.414   6.633   7.539
 3357TIP3   OH233523   6.896   6.313   8.108
 3357TIP3    H133524   6.898   6.230   8.156
 3357TIP3    H233525   6.985   6.321   8.071
 3358TIP3   OH233526   7.047   6.609   7.975
 3358TIP3    H133527   7.019   6.663   7.901
 3358TIP3    H233528   7.141   6.597   7.961
 3359TIP3   OH233529   6.169   6.216   8.039
 3359TIP3    H133530   6.089   6.167   8.022
 3359TIP3    H233531   6.216   6.215   7.955
 3360TIP3   OH233532   6.405   5.742   7.654
 3360TIP3    H133533   6.390   5.833   7.630
 3360TIP3    H233534   6.334   5.694   7.610
 3361TIP3   OH233535   6.533   6.135   7.989
 3361TIP3    H133536   6.484   6.105   8.066
 3361TIP3    H233537   6.467   6.145   7.921
 3362TIP3   OH233538   6.796   6.088   7.901
 3362TIP3    H133539   6.706   6.090   7.934
 3362TIP3    H233540   6.842   6.028   7.959
 3363TIP3   OH233541   6.934   5.928   8.077
 3363TIP3    H133542   6.933   5.834   8.094
 3363TIP3    H233543   6.914   5.968   8.162
 3364TIP3   OH233544   5.955   6.043   7.996
 3364TIP3    H133545   5.945   5.967   7.938
 3364TIP3    H233546   5.954   6.005   8.084
 3365TIP3   OH233547   6.386   5.662   7.919
 3365TIP3    H133548   6.439   5.584   7.907
 3365TIP3    H233549   6.382   5.702   7.832
 3366TIP3   OH233550   6.451   5.798   8.154
 3366TIP3    H133551   6.433   5.751   8.073
 3366TIP3    H233552   6.409   5.883   8.143
 3367TIP3   OH233553   5.829   7.016   6.378
 3367TIP3    H133554   5.901   7.072   6.350
 3367TIP3    H233555   5.755   7.043   6.324
 3368TIP3   OH233556   5.657   7.478   6.899
 3368TIP3    H133557   5.612   7.447   6.821
 3368TIP3    H233558   5.673   7.399   6.951
 3369TIP3   OH233559   5.724   7.276   7.079
 3369TIP3    H133560   5.679   7.202   7.120
 3369TIP3    H233561   5.793   7.300   7.141
 3370TIP3   OH233562   7.487   7.367   7.336
 3370TIP3    H133563   7.495   7.427   7.410
 3370TIP3    H233564   7.515   7.419   7.260
 3371TIP3   OH233565   7.417   7.321   7.673
 3371TIP3    H133566   7.377   7.252   7.621
 3371TIP3    H233567   7.465   7.275   7.742
 3372TIP3   OH233568   7.286   6.913   8.174
 3372TIP3    H133569   7.205   6.929   8.221
 3372TIP3    H233570   7.333   6.997   8.178
 3373TIP3   OH233571   7.452   6.708   6.634
 3373TIP3    H133572   7.488   6.796   6.644
 3373TIP3    H233573   7.451   6.672   6.722
 3374TIP3   OH233574   7.464   6.577   6.875
 3374TIP3    H133575   7.385   6.534   6.908
 3374TIP3    H233576   7.524   6.578   6.950
 3375TIP3   OH233577   7.443   6.867   7.354
 3375TIP3    H133578   7.488   6.794   7.313
 3375TIP3    H233579   7.457   6.940   7.293
 3376TIP3   OH233580   7.246   7.123   7.579
 3376TIP3    H133581   7.181   7.179   7.621
 3376TIP3    H233582   7.209   7.105   7.493
 3377TIP3   OH233583   7.413   6.530   6.431
 3377TIP3    H133584   7.413   6.592   6.358
 3377TIP3    H233585   7.427   6.585   6.509
 3378TIP3   OH233586   7.258   6.419   6.953
 3378TIP3    H133587   7.241   6.335   6.910
 3378TIP3    H233588   7.202   6.418   7.031
 3379TIP3   OH233589   5.733   6.646   7.302
 3379TIP3    H133590   5.745   6.628   7.209
 3379TIP3    H233591   5.814   6.615   7.344
 3380TIP3   OH233592   7.323   6.613   7.932
 3380TIP3    H133593   7.372   6.536   7.905
 3380TIP3    H233594   7.348   6.681   7.869
 3381TIP3   OH233595   7.443   6.365   7.901
 3381TIP3    H133596   7.352   6.336   7.898
 3381TIP3    H233597   7.489   6.297   7.951
 3382TIP3   OH233598   7.219   6.216   6.756
 3382TIP3    H133599   7.233   6.121   6.754
 3382TIP3    H233600   7.289   6.251   6.700
 3383TIP3   OH233601   7.239   6.265   7.329
 3383TIP3    H133602   7.227   6.180   7.286
 3383TIP3    H233603   7.238   6.245   7.422
 3384TIP3   OH233604   7.275   6.340   7.614
 3384TIP3    H133605   7.188   6.373   7.634
 3384TIP3    H233606   7.319   6.411   7.569
 3385TIP3   OH233607   5.722   6.181   8.036
 3385TIP3    H133608   5.805   6.138   8.016
 3385TIP3    H233609   5.655   6.116   8.013
 3386TIP3   OH233610   7.485   5.702   8.141
 3386TIP3    H133611   7.537   5.638   8.091
 3386TIP3    H233612   7.475   5.776   8.082
 3387TIP3   OH233613   7.240   5.944   6.778
 3387TIP3    H133614   7.273   5.907   6.860
 3387TIP3    H233615   7.153   5.906   6.768
 3388TIP3   OH233616   5.833   6.007   7.247
 3388TIP3    H133617   5.874   5.921   7.243
 3388TIP3    H233618   5.906   6.068   7.256
 3389TIP3   OH233619   5.658   6.304   7.290
 3389TIP3    H133620   5.732   6.306   7.230
 3389TIP3    H233621   5.674   6.374   7.353
 3390TIP3   OH233622   7.418   5.896   7.962
 3390TIP3    H133623   7.338   5.944   7.986
 3390TIP3    H233624   7.401   5.863   7.874
 3391TIP3   OH233625   5.713   6.002   6.765
 3391TIP3    H133626   5.622   5.972   6.756
 3391TIP3    H233627   5.736   6.035   6.678
 3392TIP3   OH233628   7.192   7.368   6.938
 3392TIP3    H133629   7.186   7.427   6.863
 3392TIP3    H233630   7.203   7.425   7.013
 3393TIP3   OH233631   5.669   5.746   7.541
 3393TIP3    H133632   5.605   5.741   7.613
 3393TIP3    H233633   5.638   5.820   7.488
 3394TIP3   OH233634   5.904   7.124   7.983
 3394TIP3    H133635   5.849   7.091   7.912
 3394TIP3    H233636   5.902   7.055   8.049
 3395TIP3   OH233637   6.211   7.227   7.621
 3395TIP3    H133638   6.178   7.310   7.588
 3395TIP3    H233639   6.305   7.228   7.599
 3396TIP3   OH233640   6.611   7.338   7.889
 3396TIP3    H133641   6.619   7.313   7.981
 3396TIP3    H233642   6.696   7.376   7.868
 3397TIP3   OH233643   6.861   7.454   7.856
 3397TIP3    H133644   6.933   7.402   7.820
 3397TIP3    H233645   6.889   7.475   7.945
 3398TIP3   OH233646   7.327   5.705   7.739
 3398TIP3    H133647   7.253   5.724   7.680
 3398TIP3    H233648   7.358   5.620   7.711
 3399TIP3   OH233649   5.908   7.481   7.633
 3399TIP3    H133650   5.832   7.507   7.581
 3399TIP3    H233651   5.901   7.533   7.714
 3400TIP3   OH233652   6.167   7.484   7.535
 3400TIP3    H133653   6.075   7.491   7.560
 3400TIP3    H233654   6.173   7.534   7.454
 3401TIP3   OH233655   6.628   7.496   7.424
 3401TIP3    H133656   6.571   7.526   7.353
 3401TIP3    H233657   6.644   7.575   7.477
 3402TIP3   OH233658   6.836   7.354   7.530
 3402TIP3    H133659   6.760   7.398   7.492
 3402TIP3    H233660   6.904   7.422   7.529
 3403TIP3   OH233661   7.080   7.499   7.527
 3403TIP3    H133662   7.076   7.587   7.488
 3403TIP3    H233663   7.125   7.446   7.462
 3404TIP3   OH233664   5.908   7.340   7.284
 3404TIP3    H133665   5.895   7.292   7.366
 3404TIP3    H233666   5.993   7.308   7.251
 3405TIP3   OH233667   6.141   7.243   7.180
 3405TIP3    H133668   6.119   7.150   7.194
 3405TIP3    H233669   6.236   7.247   7.194
 3406TIP3   OH233670   6.445   7.236   7.272
 3406TIP3    H133671   6.415   7.145   7.261
 3406TIP3    H233672   6.451   7.247   7.366
 3407TIP3   OH233673   6.643   5.849   7.211
 3407TIP3    H133674   6.579   5.778   7.212
 3407TIP3    H233675   6.725   5.808   7.184
 3408TIP3   OH233676   7.186   5.693   7.171
 3408TIP3    H133677   7.240   5.762   7.133
 3408TIP3    H233678   7.098   5.730   7.176
 3409TIP3   OH233679   7.358   5.858   7.020
 3409TIP3    H133680   7.410   5.782   6.992
 3409TIP3    H233681   7.417   5.932   7.009
 3410TIP3   OH233682   5.923   5.712   6.929
 3410TIP3    H133683   5.830   5.706   6.911
 3410TIP3    H233684   5.955   5.621   6.925
 3411TIP3   OH233685   6.411   5.671   6.951
 3411TIP3    H133686   6.481   5.721   6.908
 3411TIP3    H233687   6.432   5.675   7.044
 3412TIP3   OH233688   6.902   5.746   7.162
 3412TIP3    H133689   6.917   5.779   7.073
 3412TIP3    H233690   6.873   5.656   7.150
 3413TIP3   OH233691   7.069   5.687   6.645
 3413TIP3    H133692   7.024   5.741   6.710
 3413TIP3    H233693   7.028   5.601   6.652
 3414TIP3   OH233694   5.760   7.326   6.637
 3414TIP3    H133695   5.686   7.323   6.575
 3414TIP3    H233696   5.799   7.412   6.625
 3415TIP3   OH233697   6.462   5.933   6.685
 3415TIP3    H133698   6.532   5.897   6.739
 3415TIP3    H233699   6.507   5.983   6.617
 3416TIP3   OH233700   5.923   5.795   7.858
 3416TIP3    H133701   5.857   5.731   7.885
 3416TIP3    H233702   6.001   5.772   7.907
 3417TIP3   OH233703   6.115   5.708   8.039
 3417TIP3    H133704   6.203   5.679   8.012
 3417TIP3    H233705   6.078   5.632   8.084
 3418TIP3   OH233706   6.966   5.652   8.095
 3418TIP3    H133707   6.962   5.606   8.179
 3418TIP3    H233708   7.057   5.644   8.068
 3419TIP3   OH233709   7.232   7.249   7.945
 3419TIP3    H133710   7.181   7.248   7.865
 3419TIP3    H233711   7.233   7.341   7.972
 3420TIP3   OH233712   7.568   6.314   6.820
 3420TIP3    H133713   7.517   6.395   6.825
 3420TIP3    H233714   7.545   6.276   6.735
 3421TIP3   OH233715   7.657   6.508   7.061
 3421TIP3    H133716   7.654   6.422   7.018
 3421TIP3    H233717   7.746   6.538   7.047
 3422TIP3   OH233718   7.584   6.960   6.624
 3422TIP3    H133719   7.586   6.947   6.529
 3422TIP3    H233720   7.551   7.049   6.636
 3423TIP3   OH233721   7.552   6.795   7.600
 3423TIP3    H133722   7.517   6.838   7.522
 3423TIP3    H233723   7.532   6.703   7.587
 3424TIP3   OH233724   7.569   7.118   7.219
 3424TIP3    H133725   7.654   7.096   7.258
 3424TIP3    H233726   7.535   7.189   7.272
 3425TIP3   OH233727   7.519   6.074   6.984
 3425TIP3    H133728   7.608   6.085   7.018
 3425TIP3    H233729   7.513   6.137   6.913
 3426TIP3   OH233730   0.010   6.158   6.507
 3426TIP3    H133731   0.070   6.099   6.461
 3426TIP3    H233732  -0.072   6.151   6.457
 3427TIP3   OH233733   7.595   6.494   7.713
 3427TIP3    H133734   7.544   6.445   7.778
 3427TIP3    H233735   7.538   6.498   7.637
 3428TIP3   OH233736   7.612   7.393   7.982
 3428TIP3    H133737   7.707   7.383   7.984
 3428TIP3    H233738   7.580   7.309   7.947
 3429TIP3   OH233739   7.592   6.797   8.069
 3429TIP3    H133740   7.532   6.728   8.099
 3429TIP3    H233741   7.549   6.836   7.993
 3430TIP3   OH233742   7.641   6.912   6.360
 3430TIP3    H133743   7.727   6.955   6.365
 3430TIP3    H233744   7.648   6.854   6.284
 3431TIP3   OH233745   7.582   6.634   7.297
 3431TIP3    H133746   7.586   6.581   7.217
 3431TIP3    H233747   7.672   6.665   7.309
 3432TIP3   OH233748   7.563   6.137   8.016
 3432TIP3    H133749   7.640   6.119   7.962
 3432TIP3    H233750   7.506   6.062   8.003
 3433TIP3   OH233751   7.535   6.218   7.310
 3433TIP3    H133752   7.613   6.272   7.322
 3433TIP3    H233753   7.469   6.278   7.276
 3434TIP3   OH233754   7.495   5.946   6.653
 3434TIP3    H133755   7.405   5.938   6.685
 3434TIP3    H233756   7.486   5.954   6.558
 3435TIP3   OH233757   7.515   5.760   7.508
 3435TIP3    H133758   7.463   5.761   7.589
 3435TIP3    H233759   7.480   5.832   7.456
 3436TIP3   OH233760   0.779   7.535   7.255
 3436TIP3    H133761   0.762   7.441   7.251
 3436TIP3    H233762   0.698   7.572   7.290
 3437TIP3   OH233763   1.654   7.586   6.576
 3437TIP3    H133764   1.567   7.586   6.616
 3437TIP3    H233765   1.680   7.678   6.575
 3438TIP3   OH233766   0.557   7.669   7.346
 3438TIP3    H133767   0.473   7.648   7.306
 3438TIP3    H233768   0.571   7.762   7.324
 3439TIP3   OH233769   1.043   7.606   7.693
 3439TIP3    H133770   1.103   7.560   7.750
 3439TIP3    H233771   0.958   7.563   7.705
 3440TIP3   OH233772   0.321   7.630   7.224
 3440TIP3    H133773   0.328   7.608   7.131
 3440TIP3    H233774   0.279   7.554   7.263
 3441TIP3   OH233775   0.768   7.551   7.657
 3441TIP3    H133776   0.756   7.644   7.635
 3441TIP3    H233777   0.693   7.508   7.615
 3442TIP3   OH233778   0.732   7.513   7.922
 3442TIP3    H133779   0.799   7.449   7.945
 3442TIP3    H233780   0.733   7.517   7.826
 3443TIP3   OH233781   1.789   7.567   8.089
 3443TIP3    H133782   1.861   7.507   8.067
 3443TIP3    H233783   1.831   7.653   8.093
 3444TIP3   OH233784   0.047   7.627   7.543
 3444TIP3    H133785  -0.046   7.611   7.526
 3444TIP3    H233786   0.055   7.722   7.550
 3445TIP3   OH233787   1.652   7.564   7.708
 3445TIP3    H133788   1.574   7.546   7.655
 3445TIP3    H233789   1.702   7.483   7.707
 3446TIP3   OH233790   1.527   7.554   7.164
 3446TIP3    H133791   1.607   7.575   7.116
 3446TIP3    H233792   1.491   7.640   7.188
 3447TIP3   OH233793   1.725   7.623   7.001
 3447TIP3    H133794   1.799   7.590   6.951
 3447TIP3    H233795   1.743   7.717   7.012
 3448TIP3   OH233796   0.341   7.561   6.961
 3448TIP3    H133797   0.247   7.568   6.945
 3448TIP3    H233798   0.364   7.474   6.929
 3449TIP3   OH233799   0.217   7.576   6.615
 3449TIP3    H133800   0.247   7.630   6.542
 3449TIP3    H233801   0.123   7.590   6.618
 3450TIP3   OH233802   0.743   7.556   6.935
 3450TIP3    H133803   0.726   7.647   6.912
 3450TIP3    H233804   0.740   7.554   7.030
 3451TIP3   OH233805   1.240   7.569   7.015
 3451TIP3    H133806   1.309   7.517   6.975
 3451TIP3    H233807   1.194   7.509   7.073
 3452TIP3   OH233808   1.411   7.590   6.709
 3452TIP3    H133809   1.333   7.539   6.688
 3452TIP3    H233810   1.442   7.554   6.793
 3453TIP3   OH233811   0.245   7.602   7.877
 3453TIP3    H133812   0.192   7.529   7.910
 3453TIP3    H233813   0.329   7.591   7.921
 3454TIP3   OH233814   0.473   7.549   8.024
 3454TIP3    H133815   0.560   7.519   7.998
 3454TIP3    H233816   0.447   7.489   8.095
 3455TIP3   OH233817   1.315   7.507   8.119
 3455TIP3    H133818   1.326   7.469   8.206
 3455TIP3    H233819   1.403   7.512   8.084
 3456TIP3   OH233820   2.655   7.540   7.257
 3456TIP3    H133821   2.643   7.445   7.253
 3456TIP3    H233822   2.569   7.574   7.282
 3457TIP3   OH233823   3.544   7.558   6.575
 3457TIP3    H133824   3.450   7.573   6.584
 3457TIP3    H233825   3.581   7.645   6.561
 3458TIP3   OH233826   2.416   7.663   7.320
 3458TIP3    H133827   2.336   7.642   7.272
 3458TIP3    H233828   2.434   7.754   7.296
 3459TIP3   OH233829   2.909   7.590   7.690
 3459TIP3    H133830   2.983   7.557   7.742
 3459TIP3    H233831   2.835   7.538   7.719
 3460TIP3   OH233832   2.179   7.607   7.194
 3460TIP3    H133833   2.170   7.596   7.100
 3460TIP3    H233834   2.144   7.527   7.232
 3461TIP3   OH233835   2.620   7.541   7.647
 3461TIP3    H133836   2.621   7.634   7.625
 3461TIP3    H233837   2.542   7.507   7.603
 3462TIP3   OH233838   2.611   7.522   7.915
 3462TIP3    H133839   2.684   7.465   7.935
 3462TIP3    H233840   2.604   7.520   7.820
 3463TIP3   OH233841   3.681   7.574   8.080
 3463TIP3    H133842   3.747   7.509   8.056
 3463TIP3    H233843   3.729   7.657   8.084
 3464TIP3   OH233844   1.898   7.599   7.533
 3464TIP3    H133845   1.822   7.593   7.592
 3464TIP3    H233846   1.925   7.690   7.538
 3465TIP3   OH233847   3.535   7.559   7.719
 3465TIP3    H133848   3.461   7.548   7.658
 3465TIP3    H233849   3.584   7.478   7.711
 3466TIP3   OH233850   3.405   7.574   7.187
 3466TIP3    H133851   3.464   7.570   7.111
 3466TIP3    H233852   3.389   7.667   7.200
 3467TIP3   OH233853   3.567   7.609   6.970
 3467TIP3    H133854   3.644   7.567   6.932
 3467TIP3    H233855   3.591   7.701   6.976
 3468TIP3   OH233856   2.144   7.582   6.912
 3468TIP3    H133857   2.057   7.542   6.905
 3468TIP3    H233858   2.204   7.507   6.913
 3469TIP3   OH233859   2.106   7.596   6.628
 3469TIP3    H133860   2.140   7.678   6.591
 3469TIP3    H233861   2.117   7.607   6.723
 3470TIP3   OH233862   2.558   7.560   6.981
 3470TIP3    H133863   2.570   7.646   6.941
 3470TIP3    H233864   2.615   7.561   7.058
 3471TIP3   OH233865   3.116   7.568   6.972
 3471TIP3    H133866   3.189   7.525   6.927
 3471TIP3    H233867   3.071   7.497   7.018
 3472TIP3   OH233868   3.264   7.622   6.581
 3472TIP3    H133869   3.251   7.611   6.487
 3472TIP3    H233870   3.219   7.548   6.621
 3473TIP3   OH233871   2.108   7.618   7.865
 3473TIP3    H133872   2.052   7.551   7.904
 3473TIP3    H233873   2.194   7.602   7.902
 3474TIP3   OH233874   2.345   7.556   7.989
 3474TIP3    H133875   2.435   7.531   7.968
 3474TIP3    H233876   2.315   7.486   8.047
 3475TIP3   OH233877   3.192   7.543   8.116
 3475TIP3    H133878   3.190   7.488   8.194
 3475TIP3    H233879   3.281   7.534   8.082
 3476TIP3   OH233880   4.565   7.528   7.246
 3476TIP3    H133881   4.559   7.433   7.240
 3476TIP3    H233882   4.478   7.556   7.275
 3477TIP3   OH233883   4.323   7.634   7.321
 3477TIP3    H133884   4.241   7.621   7.274
 3477TIP3    H233885   4.340   7.728   7.316
 3478TIP3   OH233886   4.808   7.598   7.685
 3478TIP3    H133887   4.873   7.551   7.737
 3478TIP3    H233888   4.727   7.548   7.696
 3479TIP3   OH233889   4.082   7.607   7.197
 3479TIP3    H133890   4.075   7.580   7.106
 3479TIP3    H233891   4.042   7.536   7.246
 3480TIP3   OH233892   4.530   7.544   7.655
 3480TIP3    H133893   4.525   7.639   7.640
 3480TIP3    H233894   4.454   7.508   7.609
 3481TIP3   OH233895   4.499   7.486   7.916
 3481TIP3    H133896   4.568   7.421   7.930
 3481TIP3    H233897   4.495   7.497   7.820
 3482TIP3   OH233898   5.586   7.541   8.105
 3482TIP3    H133899   5.642   7.485   8.051
 3482TIP3    H233900   5.612   7.630   8.082
 3483TIP3   OH233901   3.784   7.600   7.546
 3483TIP3    H133902   3.708   7.595   7.603
 3483TIP3    H233903   3.805   7.693   7.540
 3484TIP3   OH233904   5.416   7.561   7.709
 3484TIP3    H133905   5.343   7.549   7.648
 3484TIP3    H233906   5.465   7.479   7.702
 3485TIP3   OH233907   5.272   7.567   7.219
 3485TIP3    H133908   5.345   7.593   7.162
 3485TIP3    H233909   5.194   7.578   7.165
 3486TIP3   OH233910   5.456   7.621   7.019
 3486TIP3    H133911   5.527   7.571   6.978
 3486TIP3    H233912   5.476   7.712   6.998
 3487TIP3   OH233913   4.101   7.562   6.924
 3487TIP3    H133914   4.013   7.572   6.887
 3487TIP3    H233915   4.120   7.469   6.914
 3488TIP3   OH233916   3.995   7.615   6.582
 3488TIP3    H133917   4.033   7.559   6.514
 3488TIP3    H233918   3.948   7.683   6.534
 3489TIP3   OH233919   4.491   7.555   6.975
 3489TIP3    H133920   4.495   7.646   6.946
 3489TIP3    H233921   4.548   7.551   7.051
 3490TIP3   OH233922   5.056   7.576   7.046
 3490TIP3    H133923   5.105   7.535   6.975
 3490TIP3    H233924   4.997   7.508   7.078
 3491TIP3   OH233925   5.129   7.601   6.555
 3491TIP3    H133926   5.195   7.576   6.491
 3491TIP3    H233927   5.111   7.520   6.604
 3492TIP3   OH233928   4.002   7.613   7.865
 3492TIP3    H133929   3.942   7.549   7.902
 3492TIP3    H233930   4.088   7.589   7.901
 3493TIP3   OH233931   4.232   7.524   7.983
 3493TIP3    H133932   4.323   7.502   7.965
 3493TIP3    H233933   4.201   7.454   8.041
 3494TIP3   OH233934   5.090   7.541   8.102
 3494TIP3    H133935   5.092   7.481   8.176
 3494TIP3    H233936   5.181   7.546   8.072
 3495TIP3   OH233937   6.452   7.539   7.205
 3495TIP3    H133938   6.437   7.551   7.111
 3495TIP3    H233939   6.368   7.557   7.245
 3496TIP3   OH233940   6.213   7.638   7.309
 3496TIP3    H133941   6.130   7.619   7.265
 3496TIP3    H233942   6.224   7.733   7.299
 3497TIP3   OH233943   6.694   7.604   7.689
 3497TIP3    H133944   6.756   7.554   7.742
 3497TIP3    H233945   6.613   7.553   7.694
 3498TIP3   OH233946   5.966   7.594   7.204
 3498TIP3    H133947   5.948   7.589   7.110
 3498TIP3    H233948   5.933   7.511   7.239
 3499TIP3   OH233949   6.416   7.538   7.637
 3499TIP3    H133950   6.415   7.633   7.623
 3499TIP3    H233951   6.334   7.508   7.598
 3500TIP3   OH233952   6.366   7.487   7.897
 3500TIP3    H133953   6.433   7.428   7.932
 3500TIP3    H233954   6.382   7.488   7.803
 3501TIP3   OH233955   7.454   7.533   8.150
 3501TIP3    H133956   7.509   7.482   8.090
 3501TIP3    H233957   7.488   7.622   8.144
 3502TIP3   OH233958   5.681   7.597   7.536
 3502TIP3    H133959   5.597   7.590   7.582
 3502TIP3    H233960   5.702   7.690   7.541
 3503TIP3   OH233961   7.286   7.554   7.719
 3503TIP3    H133962   7.207   7.533   7.669
 3503TIP3    H233963   7.339   7.475   7.715
 3504TIP3   OH233964   7.199   7.542   7.151
 3504TIP3    H133965   7.279   7.595   7.141
 3504TIP3    H233966   7.130   7.595   7.111
 3505TIP3   OH233967   7.453   7.645   7.106
 3505TIP3    H133968   7.469   7.682   7.020
 3505TIP3    H233969   7.463   7.718   7.167
 3506TIP3   OH233970   5.917   7.568   6.936
 3506TIP3    H133971   5.829   7.547   6.903
 3506TIP3    H233972   5.972   7.495   6.907
 3507TIP3   OH233973   5.831   7.587   6.592
 3507TIP3    H133974   5.908   7.633   6.559
 3507TIP3    H233975   5.758   7.645   6.573
 3508TIP3   OH233976   6.460   7.539   6.934
 3508TIP3    H133977   6.514   7.524   6.856
 3508TIP3    H233978   6.431   7.630   6.926
 3509TIP3   OH233979   6.975   7.602   6.989
 3509TIP3    H133980   6.991   7.603   6.894
 3509TIP3    H233981   6.918   7.526   7.003
 3510TIP3   OH233982   7.033   7.568   6.710
 3510TIP3    H133983   7.058   7.593   6.621
 3510TIP3    H233984   6.983   7.487   6.699
 3511TIP3   OH233985   5.862   7.619   7.889
 3511TIP3    H133986   5.815   7.537   7.907
 3511TIP3    H233987   5.952   7.601   7.915
 3512TIP3   OH233988   6.108   7.537   7.978
 3512TIP3    H133989   6.193   7.517   7.939
 3512TIP3    H233990   6.098   7.475   8.050
 3513TIP3   OH233991   6.961   7.505   8.108
 3513TIP3    H133992   6.956   7.464   8.194
 3513TIP3    H233993   7.054   7.503   8.086
 3514TIP3   OH233994   7.478   7.604   7.500
 3514TIP3    H133995   7.421   7.588   7.575
 3514TIP3    H233996   7.485   7.700   7.495
 3515TIP3   OH233997   1.066   0.807   8.242
 3515TIP3    H133998   1.122   0.841   8.312
 3515TIP3    H233999   1.122   0.744   8.196
 3516TIP3   OH234000   1.280   0.896   8.395
 3516TIP3    H134001   1.301   0.947   8.473
 3516TIP3    H234002   1.340   0.928   8.328
 3517TIP3   OH234003   1.607   0.087   8.439
 3517TIP3    H134004   1.551   0.164   8.453
 3517TIP3    H234005   1.685   0.122   8.397
 3518TIP3   OH234006   1.803   1.500   8.249
 3518TIP3    H134007   1.824   1.588   8.280
 3518TIP3    H234008   1.877   1.446   8.276
 3519TIP3   OH234009   1.362   1.731   8.334
 3519TIP3    H134010   1.394   1.667   8.270
 3519TIP3    H234011   1.390   1.695   8.418
 3520TIP3   OH234012   1.472   0.994   8.227
 3520TIP3    H134013   1.423   0.996   8.144
 3520TIP3    H234014   1.563   0.983   8.201
 3521TIP3   OH234015   0.957   0.351   8.338
 3521TIP3    H134016   0.875   0.400   8.338
 3521TIP3    H234017   0.938   0.271   8.289
 3522TIP3   OH234018   0.672   0.401   8.200
 3522TIP3    H134019   0.615   0.379   8.273
 3522TIP3    H234020   0.624   0.468   8.151
 3523TIP3   OH234021   0.214   0.474   8.448
 3523TIP3    H134022   0.205   0.523   8.367
 3523TIP3    H234023   0.126   0.438   8.464
 3524TIP3   OH234024   0.579   0.695   8.314
 3524TIP3    H134025   0.530   0.656   8.242
 3524TIP3    H234026   0.663   0.719   8.275
 3525TIP3   OH234027   1.228   0.423   8.344
 3525TIP3    H134028   1.136   0.401   8.355
 3525TIP3    H234029   1.246   0.486   8.414
 3526TIP3   OH234030   1.304   0.646   0.009
 3526TIP3    H134031   1.395   0.643   0.037
 3526TIP3    H234032   1.297   0.727  -0.042
 3527TIP3   OH234033   1.067   1.288   8.410
 3527TIP3    H134034   1.019   1.371   8.417
 3527TIP3    H234035   1.018   1.228   8.466
 3528TIP3   OH234036   1.799   0.664   8.433
 3528TIP3    H134037   1.750   0.651   8.351
 3528TIP3    H234038   1.843   0.747   8.421
 3529TIP3   OH234039   0.175   0.889   8.306
 3529TIP3    H134040   0.234   0.949   8.352
 3529TIP3    H234041   0.089   0.908   8.342
 3530TIP3   OH234042   1.421   1.327   8.303
 3530TIP3    H134043   1.385   1.352   8.388
 3530TIP3    H234044   1.347   1.291   8.254
 3531TIP3   OH234045   1.872   1.751   8.360
 3531TIP3    H134046   1.935   1.824   8.357
 3531TIP3    H234047   1.789   1.792   8.381
 3532TIP3   OH234048   0.806   1.405   8.134
 3532TIP3    H134049   0.806   1.323   8.085
 3532TIP3    H234050   0.760   1.385   8.215
 3533TIP3   OH234051   0.671   1.388   8.375
 3533TIP3    H134052   0.670   1.319   8.441
 3533TIP3    H234053   0.666   1.469   8.425
 3534TIP3   OH234054   0.311   1.088   8.437
 3534TIP3    H134055   0.259   1.137   8.501
 3534TIP3    H234056   0.362   1.155   8.391
 3535TIP3   OH234057   0.935   1.531   8.421
 3535TIP3    H134058   0.846   1.557   8.446
 3535TIP3    H234059   0.945   1.564   8.332
 3536TIP3   OH234060   0.681   1.643   8.486
 3536TIP3    H134061   0.718   1.721   8.446
 3536TIP3    H234062   0.599   1.674   8.526
 3537TIP3   OH234063   0.486   0.348   8.404
 3537TIP3    H134064   0.414   0.402   8.439
 3537TIP3    H234065   0.558   0.362   8.465
 3538TIP3   OH234066   0.424   1.303   8.292
 3538TIP3    H134067   0.499   1.354   8.323
 3538TIP3    H234068   0.459   1.253   8.218
 3539TIP3   OH234069   0.137   0.625   8.234
 3539TIP3    H134070   0.154   0.712   8.269
 3539TIP3    H234071   0.138   0.638   8.139
 3540TIP3   OH234072   1.000   1.596   8.149
 3540TIP3    H134073   0.931   1.530   8.137
 3540TIP3    H234074   1.076   1.560   8.104
 3541TIP3   OH234075   1.455   1.556   8.149
 3541TIP3    H134076   1.470   1.474   8.195
 3541TIP3    H234077   1.526   1.560   8.084
 3542TIP3   OH234078   0.559   1.138   8.122
 3542TIP3    H134079   0.576   1.081   8.197
 3542TIP3    H234080   0.643   1.144   8.076
 3543TIP3   OH234081   1.192   1.261   8.168
 3543TIP3    H134082   1.138   1.264   8.247
 3543TIP3    H234083   1.167   1.179   8.126
 3544TIP3   OH234084   0.626   0.973   8.329
 3544TIP3    H134085   0.569   0.901   8.357
 3544TIP3    H234086   0.696   0.931   8.280
 3545TIP3   OH234087   0.798   0.814   8.189
 3545TIP3    H134088   0.789   0.831   8.095
 3545TIP3    H234089   0.892   0.806   8.203
 3546TIP3   OH234090   1.737   1.019   8.141
 3546TIP3    H134091   1.716   0.999   8.049
 3546TIP3    H234092   1.715   1.112   8.151
 3547TIP3   OH234093   0.821   1.862   8.390
 3547TIP3    H134094   0.914   1.841   8.382
 3547TIP3    H234095   0.802   1.917   8.314
 3548TIP3   OH234096   0.155   1.303   8.260
 3548TIP3    H134097   0.249   1.321   8.273
 3548TIP3    H234098   0.153   1.242   8.187
 3549TIP3   OH234099   1.872   0.917   8.353
 3549TIP3    H134100   1.826   0.935   8.271
 3549TIP3    H234101   1.827   0.972   8.418
 3550TIP3   OH234102   1.677   0.642   8.195
 3550TIP3    H134103   1.708   0.685   8.115
 3550TIP3    H234104   1.642   0.558   8.165
 3551TIP3   OH234105   1.592   0.380   8.147
 3551TIP3    H134106   1.592   0.351   8.238
 3551TIP3    H234107   1.501   0.370   8.119
 3552TIP3   OH234108   1.833   0.200   8.327
 3552TIP3    H134109   1.851   0.174   8.237
 3552TIP3    H234110   1.871   0.287   8.335
 3553TIP3   OH234111   0.122   0.134   8.419
 3553TIP3    H134112   0.181   0.155   8.347
 3553TIP3    H234113   0.144   0.197   8.487
 3554TIP3   OH234114   0.326   0.194   8.247
 3554TIP3    H134115   0.376   0.154   8.175
 3554TIP3    H234116   0.393   0.236   8.302
 3555TIP3   OH234117   1.084   1.788   8.335
 3555TIP3    H134118   1.179   1.783   8.336
 3555TIP3    H234119   1.058   1.733   8.261
 3556TIP3   OH234120   0.341   1.771   8.202
 3556TIP3    H134121   0.288   1.809   8.272
 3556TIP3    H234122   0.400   1.711   8.246
 3557TIP3   OH234123   2.952   0.805   8.230
 3557TIP3    H134124   3.006   0.837   8.302
 3557TIP3    H234125   3.009   0.745   8.182
 3558TIP3   OH234126   3.156   0.885   8.402
 3558TIP3    H134127   3.178   0.937   8.479
 3558TIP3    H234128   3.216   0.917   8.334
 3559TIP3   OH234129   3.499   0.073   8.453
 3559TIP3    H134130   3.511   0.080   8.548
 3559TIP3    H234131   3.581   0.103   8.415
 3560TIP3   OH234132   3.674   1.493   8.260
 3560TIP3    H134133   3.698   1.581   8.290
 3560TIP3    H234134   3.753   1.441   8.272
 3561TIP3   OH234135   3.245   1.722   8.329
 3561TIP3    H134136   3.272   1.663   8.259
 3561TIP3    H234137   3.286   1.686   8.408
 3562TIP3   OH234138   3.337   0.980   8.224
 3562TIP3    H134139   3.300   0.983   8.136
 3562TIP3    H234140   3.432   0.977   8.211
 3563TIP3   OH234141   2.893   0.324   8.342
 3563TIP3    H134142   2.854   0.404   8.307
 3563TIP3    H234143   2.845   0.254   8.298
 3564TIP3   OH234144   2.540   0.402   8.173
 3564TIP3    H134145   2.486   0.380   8.250
 3564TIP3    H234146   2.487   0.465   8.124
 3565TIP3   OH234147   1.948   0.435   8.403
 3565TIP3    H134148   2.023   0.479   8.363
 3565TIP3    H234149   1.888   0.506   8.428
 3566TIP3   OH234150   2.443   0.690   8.297
 3566TIP3    H134151   2.396   0.660   8.219
 3566TIP3    H234152   2.532   0.708   8.265
 3567TIP3   OH234153   3.171   0.352   8.356
 3567TIP3    H134154   3.078   0.331   8.367
 3567TIP3    H234155   3.182   0.436   8.402
 3568TIP3   OH234156   3.199   0.617   8.465
 3568TIP3    H134157   3.282   0.626   8.511
 3568TIP3    H234158   3.181   0.705   8.431
 3569TIP3   OH234159   2.949   1.264   8.405
 3569TIP3    H134160   2.898   1.345   8.415
 3569TIP3    H234161   2.924   1.211   8.480
 3570TIP3   OH234162   3.670   0.645   8.412
 3570TIP3    H134163   3.623   0.639   8.329
 3570TIP3    H234164   3.721   0.725   8.406
 3571TIP3   OH234165   2.123   0.906   8.245
 3571TIP3    H134166   2.170   0.973   8.294
 3571TIP3    H234167   2.034   0.910   8.278
 3572TIP3   OH234168   3.296   1.319   8.300
 3572TIP3    H134169   3.262   1.316   8.390
 3572TIP3    H234170   3.223   1.290   8.246
 3573TIP3   OH234171   3.744   1.744   8.366
 3573TIP3    H134172   3.813   1.809   8.352
 3573TIP3    H234173   3.663   1.796   8.373
 3574TIP3   OH234174   2.679   1.402   8.138
 3574TIP3    H134175   2.675   1.323   8.084
 3574TIP3    H234176   2.629   1.379   8.217
 3575TIP3   OH234177   2.528   1.378   8.369
 3575TIP3    H134178   2.513   1.308   8.432
 3575TIP3    H234179   2.530   1.458   8.421
 3576TIP3   OH234180   2.210   1.065   8.447
 3576TIP3    H134181   2.170   1.016   8.519
 3576TIP3    H234182   2.292   1.098   8.483
 3577TIP3   OH234183   2.813   1.501   8.426
 3577TIP3    H134184   2.725   1.532   8.447
 3577TIP3    H234185   2.829   1.532   8.337
 3578TIP3   OH234186   2.575   1.630   8.489
 3578TIP3    H134187   2.593   1.706   8.433
 3578TIP3    H234188   2.567   1.667   8.577
 3579TIP3   OH234189   2.368   0.361   8.393
 3579TIP3    H134190   2.330   0.449   8.398
 3579TIP3    H234191   2.444   0.365   8.451
 3580TIP3   OH234192   2.268   1.353   8.238
 3580TIP3    H134193   2.344   1.404   8.266
 3580TIP3    H234194   2.304   1.273   8.200
 3581TIP3   OH234195   2.110   0.632   8.288
 3581TIP3    H134196   2.131   0.725   8.284
 3581TIP3    H234197   2.080   0.611   8.199
 3582TIP3   OH234198   2.879   1.588   8.160
 3582TIP3    H134199   2.810   1.523   8.142
 3582TIP3    H234200   2.956   1.554   8.113
 3583TIP3   OH234201   3.334   1.548   8.144
 3583TIP3    H134202   3.352   1.469   8.195
 3583TIP3    H234203   3.408   1.554   8.084
 3584TIP3   OH234204   2.410   1.139   8.135
 3584TIP3    H134205   2.435   1.082   8.207
 3584TIP3    H234206   2.491   1.149   8.084
 3585TIP3   OH234207   3.067   1.259   8.159
 3585TIP3    H134208   3.017   1.255   8.240
 3585TIP3    H234209   3.046   1.178   8.113
 3586TIP3   OH234210   2.510   0.962   8.333
 3586TIP3    H134211   2.450   0.888   8.342
 3586TIP3    H234212   2.581   0.929   8.279
 3587TIP3   OH234213   2.679   0.805   8.188
 3587TIP3    H134214   2.670   0.827   8.095
 3587TIP3    H234215   2.773   0.798   8.202
 3588TIP3   OH234216   3.605   1.001   8.149
 3588TIP3    H134217   3.595   0.987   8.054
 3588TIP3    H234218   3.598   1.096   8.159
 3589TIP3   OH234219   2.691   1.859   8.370
 3589TIP3    H134220   2.784   1.839   8.373
 3589TIP3    H234221   2.681   1.916   8.294
 3590TIP3   OH234222   2.006   1.313   8.305
 3590TIP3    H134223   2.100   1.330   8.295
 3590TIP3    H234224   1.983   1.255   8.233
 3591TIP3   OH234225   3.757   0.898   8.349
 3591TIP3    H134226   3.707   0.930   8.274
 3591TIP3    H234227   3.731   0.956   8.421
 3592TIP3   OH234228   3.555   0.669   8.160
 3592TIP3    H134229   3.621   0.734   8.137
 3592TIP3    H234230   3.498   0.665   8.083
 3593TIP3   OH234231   3.464   0.385   8.170
 3593TIP3    H134232   3.557   0.392   8.191
 3593TIP3    H234233   3.440   0.472   8.139
 3594TIP3   OH234234   3.672   0.219   8.298
 3594TIP3    H134235   3.725   0.170   8.234
 3594TIP3    H234236   3.734   0.280   8.338
 3595TIP3   OH234237   2.054   0.070   8.429
 3595TIP3    H134238   2.109   0.114   8.365
 3595TIP3    H234239   1.966   0.104   8.414
 3596TIP3   OH234240   2.211   0.198   8.236
 3596TIP3    H134241   2.266   0.165   8.164
 3596TIP3    H234242   2.271   0.248   8.291
 3597TIP3   OH234243   2.970   1.772   8.350
 3597TIP3    H134244   3.065   1.774   8.338
 3597TIP3    H234245   2.938   1.720   8.277
 3598TIP3   OH234246   2.199   1.764   8.180
 3598TIP3    H134247   2.157   1.775   8.266
 3598TIP3    H234248   2.255   1.687   8.191
 3599TIP3   OH234249   4.826   0.801   8.237
 3599TIP3    H134250   4.880   0.837   8.307
 3599TIP3    H234251   4.886   0.749   8.184
 3600TIP3   OH234252   5.034   0.887   8.401
 3600TIP3    H134253   5.061   0.940   8.476
 3600TIP3    H234254   5.090   0.917   8.329
 3601TIP3   OH234255   5.379   0.102   8.454
 3601TIP3    H134256   5.356   0.014   8.424
 3601TIP3    H234257   5.451   0.130   8.398
 3602TIP3   OH234258   5.575   1.498   8.232
 3602TIP3    H134259   5.589   1.587   8.265
 3602TIP3    H234260   5.650   1.448   8.264
 3603TIP3   OH234261   5.101   1.729   8.328
 3603TIP3    H134262   5.144   1.668   8.268
 3603TIP3    H234263   5.140   1.711   8.413
 3604TIP3   OH234264   5.206   0.977   8.214
 3604TIP3    H134265   5.181   0.988   8.122
 3604TIP3    H234266   5.302   0.981   8.213
 3605TIP3   OH234267   4.746   0.306   8.232
 3605TIP3    H134268   4.803   0.363   8.283
 3605TIP3    H234269   4.659   0.346   8.238
 3606TIP3   OH234270   4.480   0.407   8.203
 3606TIP3    H134271   4.432   0.476   8.247
 3606TIP3    H234272   4.421   0.376   8.134
 3607TIP3   OH234273   3.827   0.412   8.413
 3607TIP3    H134274   3.916   0.433   8.385
 3607TIP3    H234275   3.785   0.497   8.427
 3608TIP3   OH234276   4.345   0.631   8.313
 3608TIP3    H134277   4.273   0.647   8.252
 3608TIP3    H234278   4.416   0.687   8.281
 3609TIP3   OH234279   5.041   0.378   8.419
 3609TIP3    H134280   5.001   0.343   8.499
 3609TIP3    H234281   5.054   0.471   8.437
 3610TIP3   OH234282   5.095   0.634   8.492
 3610TIP3    H134283   5.181   0.644   8.533
 3610TIP3    H234284   5.078   0.719   8.451
 3611TIP3   OH234285   4.825   1.278   8.416
 3611TIP3    H134286   4.779   1.362   8.414
 3611TIP3    H234287   4.826   1.253   8.508
 3612TIP3   OH234288   5.579   0.647   8.437
 3612TIP3    H134289   5.535   0.636   8.353
 3612TIP3    H234290   5.619   0.734   8.433
 3613TIP3   OH234291   4.011   0.910   8.251
 3613TIP3    H134292   4.053   0.980   8.299
 3613TIP3    H234293   3.922   0.906   8.286
 3614TIP3   OH234294   5.191   1.330   8.306
 3614TIP3    H134295   5.162   1.352   8.395
 3614TIP3    H234296   5.113   1.296   8.263
 3615TIP3   OH234297   5.629   1.749   8.344
 3615TIP3    H134298   5.695   1.819   8.337
 3615TIP3    H234299   5.547   1.796   8.358
 3616TIP3   OH234300   4.561   1.410   8.141
 3616TIP3    H134301   4.562   1.328   8.091
 3616TIP3    H234302   4.518   1.388   8.223
 3617TIP3   OH234303   4.412   1.381   8.377
 3617TIP3    H134304   4.406   1.313   8.445
 3617TIP3    H234305   4.423   1.463   8.425
 3618TIP3   OH234306   4.058   1.085   8.461
 3618TIP3    H134307   4.030   1.022   8.528
 3618TIP3    H234308   4.145   1.112   8.488
 3619TIP3   OH234309   4.708   1.525   8.416
 3619TIP3    H134310   4.620   1.550   8.444
 3619TIP3    H234311   4.726   1.583   8.341
 3620TIP3   OH234312   4.458   1.620   0.004
 3620TIP3    H134313   4.477   1.706  -0.033
 3620TIP3    H234314   4.459   1.634   0.099
 3621TIP3   OH234315   4.273   0.335   8.426
 3621TIP3    H134316   4.272   0.430   8.419
 3621TIP3    H234317   4.364   0.314   8.447
 3622TIP3   OH234318   4.154   1.350   8.255
 3622TIP3    H134319   4.228   1.395   8.295
 3622TIP3    H234320   4.193   1.274   8.212
 3623TIP3   OH234321   4.011   0.633   8.293
 3623TIP3    H134322   4.020   0.727   8.276
 3623TIP3    H234323   4.012   0.593   8.206
 3624TIP3   OH234324   4.765   1.598   8.135
 3624TIP3    H134325   4.698   1.529   8.134
 3624TIP3    H234326   4.843   1.557   8.098
 3625TIP3   OH234327   5.221   1.560   8.151
 3625TIP3    H134328   5.242   1.482   8.202
 3625TIP3    H234329   5.293   1.568   8.089
 3626TIP3   OH234330   4.299   1.140   8.147
 3626TIP3    H134331   4.325   1.085   8.221
 3626TIP3    H234332   4.380   1.153   8.097
 3627TIP3   OH234333   4.954   1.262   8.175
 3627TIP3    H134334   4.901   1.261   8.254
 3627TIP3    H234335   4.932   1.181   8.130
 3628TIP3   OH234336   4.410   0.972   8.351
 3628TIP3    H134337   4.449   0.931   8.428
 3628TIP3    H234338   4.450   0.925   8.277
 3629TIP3   OH234339   4.551   0.793   8.196
 3629TIP3    H134340   4.537   0.815   8.104
 3629TIP3    H234341   4.646   0.792   8.206
 3630TIP3   OH234342   5.482   1.010   8.170
 3630TIP3    H134343   5.467   0.987   8.078
 3630TIP3    H234344   5.473   1.105   8.173
 3631TIP3   OH234345   4.568   1.856   8.390
 3631TIP3    H134346   4.661   1.837   8.379
 3631TIP3    H234347   4.544   1.905   8.311
 3632TIP3   OH234348   3.884   1.316   8.283
 3632TIP3    H134349   3.979   1.329   8.289
 3632TIP3    H234350   3.873   1.252   8.213
 3633TIP3   OH234351   5.640   0.907   8.368
 3633TIP3    H134352   5.583   0.928   8.294
 3633TIP3    H234353   5.613   0.966   8.438
 3634TIP3   OH234354   5.461   0.637   8.195
 3634TIP3    H134355   5.484   0.684   8.115
 3634TIP3    H234356   5.423   0.555   8.164
 3635TIP3   OH234357   5.369   0.376   8.147
 3635TIP3    H134358   5.412   0.322   8.213
 3635TIP3    H234359   5.276   0.356   8.155
 3636TIP3   OH234360   5.571   0.210   8.289
 3636TIP3    H134361   5.620   0.177   8.214
 3636TIP3    H234362   5.627   0.278   8.327
 3637TIP3   OH234363   3.934   0.092   8.445
 3637TIP3    H134364   3.968   0.159   8.385
 3637TIP3    H234365   3.967   0.118   8.531
 3638TIP3   OH234366   4.062   0.261   8.263
 3638TIP3    H134367   4.085   0.184   8.212
 3638TIP3    H234368   4.142   0.282   8.311
 3639TIP3   OH234369   4.827   1.785   8.328
 3639TIP3    H134370   4.922   1.782   8.343
 3639TIP3    H234371   4.814   1.738   8.246
 3640TIP3   OH234372   4.095   1.748   8.168
 3640TIP3    H134373   4.065   1.748   8.259
 3640TIP3    H234374   4.169   1.687   8.167
 3641TIP3   OH234375   6.721   0.789   8.242
 3641TIP3    H134376   6.769   0.821   8.318
 3641TIP3    H234377   6.781   0.726   8.201
 3642TIP3   OH234378   6.911   0.898   8.414
 3642TIP3    H134379   6.923   0.946   8.495
 3642TIP3    H234380   6.970   0.940   8.352
 3643TIP3   OH234381   7.251   0.075   8.416
 3643TIP3    H134382   7.193   0.151   8.426
 3643TIP3    H234383   7.334   0.112   8.385
 3644TIP3   OH234384   7.449   1.478   8.250
 3644TIP3    H134385   7.452   1.570   8.277
 3644TIP3    H234386   7.511   1.434   8.308
 3645TIP3   OH234387   6.966   1.725   8.342
 3645TIP3    H134388   7.009   1.667   8.279
 3645TIP3    H234389   7.012   1.709   8.425
 3646TIP3   OH234390   7.090   1.026   8.256
 3646TIP3    H134391   7.082   1.021   8.161
 3646TIP3    H234392   7.185   1.026   8.272
 3647TIP3   OH234393   6.618   0.373   8.337
 3647TIP3    H134394   6.532   0.415   8.342
 3647TIP3    H234395   6.604   0.295   8.284
 3648TIP3   OH234396   6.324   0.395   8.175
 3648TIP3    H134397   6.269   0.388   8.253
 3648TIP3    H234398   6.277   0.458   8.119
 3649TIP3   OH234399   5.725   0.413   8.397
 3649TIP3    H134400   5.794   0.460   8.350
 3649TIP3    H234401   5.668   0.483   8.430
 3650TIP3   OH234402   6.231   0.684   8.290
 3650TIP3    H134403   6.184   0.654   8.211
 3650TIP3    H234404   6.316   0.712   8.257
 3651TIP3   OH234405   6.897   0.422   8.340
 3651TIP3    H134406   6.804   0.411   8.359
 3651TIP3    H234407   6.925   0.495   8.395
 3652TIP3   OH234408   7.000   0.641   8.472
 3652TIP3    H134409   7.078   0.653   8.527
 3652TIP3    H234410   6.972   0.730   8.451
 3653TIP3   OH234411   6.704   1.278   8.396
 3653TIP3    H134412   6.658   1.362   8.397
 3653TIP3    H234413   6.703   1.248   8.487
 3654TIP3   OH234414   7.470   0.674   8.405
 3654TIP3    H134415   7.416   0.668   8.326
 3654TIP3    H234416   7.506   0.763   8.402
 3655TIP3   OH234417   5.884   0.891   8.244
 3655TIP3    H134418   5.938   0.949   8.297
 3655TIP3    H234419   5.797   0.895   8.285
 3656TIP3   OH234420   7.085   1.332   8.326
 3656TIP3    H134421   7.069   1.343   8.420
 3656TIP3    H234422   7.016   1.271   8.297
 3657TIP3   OH234423   7.471   1.735   8.352
 3657TIP3    H134424   7.497   1.795   8.283
 3657TIP3    H234425   7.387   1.769   8.382
 3658TIP3   OH234426   6.458   1.391   8.142
 3658TIP3    H134427   6.459   1.309   8.093
 3658TIP3    H234428   6.415   1.368   8.225
 3659TIP3   OH234429   6.309   1.366   8.378
 3659TIP3    H134430   6.295   1.294   8.439
 3659TIP3    H234431   6.317   1.444   8.434
 3660TIP3   OH234432   5.992   1.035   8.445
 3660TIP3    H134433   5.945   1.000   8.522
 3660TIP3    H234434   6.063   1.086   8.482
 3661TIP3   OH234435   6.591   1.528   8.411
 3661TIP3    H134436   6.504   1.539   8.450
 3661TIP3    H234437   6.609   1.612   8.369
 3662TIP3   OH234438   6.347   1.601   0.016
 3662TIP3    H134439   6.336   1.688  -0.022
 3662TIP3    H234440   6.341   1.616   0.111
 3663TIP3   OH234441   6.153   0.362   8.406
 3663TIP3    H134442   6.123   0.452   8.417
 3663TIP3    H234443   6.233   0.356   8.457
 3664TIP3   OH234444   6.050   1.344   8.270
 3664TIP3    H134445   6.129   1.377   8.313
 3664TIP3    H234446   6.082   1.274   8.213
 3665TIP3   OH234447   5.874   0.612   8.268
 3665TIP3    H134448   5.897   0.704   8.276
 3665TIP3    H234449   5.846   0.602   8.177
 3666TIP3   OH234450   6.625   1.616   8.121
 3666TIP3    H134451   6.573   1.537   8.136
 3666TIP3    H234452   6.712   1.583   8.096
 3667TIP3   OH234453   7.093   1.561   8.167
 3667TIP3    H134454   7.111   1.483   8.220
 3667TIP3    H234455   7.163   1.561   8.102
 3668TIP3   OH234456   6.187   1.144   8.129
 3668TIP3    H134457   6.209   1.088   8.204
 3668TIP3    H234458   6.269   1.151   8.080
 3669TIP3   OH234459   6.825   1.265   8.151
 3669TIP3    H134460   6.780   1.268   8.236
 3669TIP3    H234461   6.801   1.180   8.115
 3670TIP3   OH234462   6.288   0.964   8.327
 3670TIP3    H134463   6.228   0.890   8.341
 3670TIP3    H234464   6.356   0.928   8.270
 3671TIP3   OH234465   6.454   0.810   8.174
 3671TIP3    H134466   6.453   0.824   8.080
 3671TIP3    H234467   6.546   0.796   8.195
 3672TIP3   OH234468   7.367   1.017   8.158
 3672TIP3    H134469   7.339   0.983   8.073
 3672TIP3    H234470   7.340   1.109   8.157
 3673TIP3   OH234471   6.416   1.845   8.379
 3673TIP3    H134472   6.509   1.844   8.399
 3673TIP3    H234473   6.378   1.902   8.446
 3674TIP3   OH234474   5.779   1.317   8.306
 3674TIP3    H134475   5.873   1.333   8.298
 3674TIP3    H234476   5.759   1.258   8.234
 3675TIP3   OH234477   7.553   0.949   8.347
 3675TIP3    H134478   7.493   0.951   8.273
 3675TIP3    H234479   7.590   1.037   8.350
 3676TIP3   OH234480   7.314   0.637   8.183
 3676TIP3    H134481   7.293   0.672   8.096
 3676TIP3    H234482   7.300   0.543   8.174
 3677TIP3   OH234483   7.263   0.369   8.148
 3677TIP3    H134484   7.275   0.328   8.234
 3677TIP3    H234485   7.171   0.353   8.127
 3678TIP3   OH234486   7.480   0.218   8.332
 3678TIP3    H134487   7.511   0.163   8.260
 3678TIP3    H234488   7.537   0.295   8.329
 3679TIP3   OH234489   5.892   0.076   8.425
 3679TIP3    H134490   5.889   0.152   8.367
 3679TIP3    H234491   5.886   0.112   8.513
 3680TIP3   OH234492   5.970   0.254   8.227
 3680TIP3    H134493   6.018   0.180   8.190
 3680TIP3    H234494   6.032   0.296   8.287
 3681TIP3   OH234495   6.685   1.788   8.329
 3681TIP3    H134496   6.773   1.802   8.365
 3681TIP3    H234497   6.701   1.741   8.247
 3682TIP3   OH234498   5.960   1.765   8.190
 3682TIP3    H134499   5.917   1.816   8.259
 3682TIP3    H234500   5.972   1.678   8.228
 3683TIP3   OH234501   7.638   0.454   8.366
 3683TIP3    H134502   7.692   0.498   8.300
 3683TIP3    H234503   7.576   0.521   8.395
 3684TIP3   OH234504   7.609   1.231   8.334
 3684TIP3    H134505   7.699   1.263   8.325
 3684TIP3    H234506   7.577   1.226   8.244
 3685TIP3   OH234507   1.062   2.692   8.245
 3685TIP3    H134508   1.121   2.723   8.315
 3685TIP3    H234509   1.116   2.630   8.195
 3686TIP3   OH234510   1.276   2.758   8.414
 3686TIP3    H134511   1.307   2.817   8.483
 3686TIP3    H234512   1.322   2.788   8.335
 3687TIP3   OH234513   1.654   1.896   8.448
 3687TIP3    H134514   1.562   1.887   8.423
 3687TIP3    H234515   1.682   1.977   8.406
 3688TIP3   OH234516   1.771   3.375   8.249
 3688TIP3    H134517   1.795   3.464   8.275
 3688TIP3    H234518   1.849   3.323   8.267
 3689TIP3   OH234519   1.354   3.601   8.320
 3689TIP3    H134520   1.401   3.537   8.267
 3689TIP3    H234521   1.383   3.585   8.410
 3690TIP3   OH234522   1.427   2.871   8.217
 3690TIP3    H134523   1.387   2.885   8.131
 3690TIP3    H234524   1.434   2.959   8.255
 3691TIP3   OH234525   1.001   2.224   8.290
 3691TIP3    H134526   0.920   2.264   8.320
 3691TIP3    H234527   0.974   2.143   8.247
 3692TIP3   OH234528   0.675   2.278   8.195
 3692TIP3    H134529   0.615   2.251   8.264
 3692TIP3    H234530   0.627   2.346   8.147
 3693TIP3   OH234531   0.152   2.359   8.446
 3693TIP3    H134532   0.174   2.396   8.360
 3693TIP3    H234533   0.068   2.316   8.433
 3694TIP3   OH234534   0.618   2.552   8.379
 3694TIP3    H134535   0.540   2.515   8.336
 3694TIP3    H234536   0.672   2.583   8.306
 3695TIP3   OH234537   1.270   2.294   8.304
 3695TIP3    H134538   1.178   2.274   8.315
 3695TIP3    H234539   1.288   2.363   8.368
 3696TIP3   OH234540   1.331   2.501   8.492
 3696TIP3    H134541   1.421   2.511   8.525
 3696TIP3    H234542   1.311   2.586   8.453
 3697TIP3   OH234543   1.058   3.165   8.396
 3697TIP3    H134544   1.015   3.250   8.402
 3697TIP3    H234545   1.019   3.114   8.467
 3698TIP3   OH234546   1.819   2.542   8.427
 3698TIP3    H134547   1.760   2.524   8.354
 3698TIP3    H234548   1.851   2.630   8.411
 3699TIP3   OH234549   0.152   2.761   8.280
 3699TIP3    H134550   0.209   2.814   8.337
 3699TIP3    H234551   0.064   2.780   8.311
 3700TIP3   OH234552   1.425   3.144   8.333
 3700TIP3    H134553   1.418   3.218   8.393
 3700TIP3    H234554   1.348   3.151   8.276
 3701TIP3   OH234555   1.853   3.627   8.345
 3701TIP3    H134556   1.924   3.690   8.340
 3701TIP3    H234557   1.774   3.680   8.359
 3702TIP3   OH234558   0.807   3.301   8.127
 3702TIP3    H134559   0.802   3.222   8.073
 3702TIP3    H234560   0.761   3.277   8.208
 3703TIP3   OH234561   0.673   3.270   8.371
 3703TIP3    H134562   0.684   3.208   8.443
 3703TIP3    H234563   0.673   3.356   8.413
 3704TIP3   OH234564   0.320   2.936   8.420
 3704TIP3    H134565   0.262   2.969   8.489
 3704TIP3    H234566   0.359   3.015   8.383
 3705TIP3   OH234567   0.937   3.412   8.415
 3705TIP3    H134568   0.854   3.451   8.442
 3705TIP3    H234569   0.958   3.454   8.332
 3706TIP3   OH234570   0.673   3.515   8.490
 3706TIP3    H134571   0.711   3.593   8.448
 3706TIP3    H234572   0.596   3.548   8.536
 3707TIP3   OH234573   0.507   2.190   8.407
 3707TIP3    H134574   0.433   2.193   8.467
 3707TIP3    H234575   0.569   2.130   8.448
 3708TIP3   OH234576   0.433   3.169   8.298
 3708TIP3    H134577   0.507   3.224   8.322
 3708TIP3    H234578   0.462   3.120   8.222
 3709TIP3   OH234579   0.173   2.497   8.210
 3709TIP3    H134580   0.167   2.587   8.242
 3709TIP3    H234581   0.130   2.498   8.125
 3710TIP3   OH234582   1.010   3.484   8.149
 3710TIP3    H134583   0.942   3.418   8.133
 3710TIP3    H234584   1.089   3.447   8.110
 3711TIP3   OH234585   1.499   3.424   8.160
 3711TIP3    H134586   1.578   3.404   8.210
 3711TIP3    H234587   1.532   3.451   8.074
 3712TIP3   OH234588   0.564   3.019   8.113
 3712TIP3    H134589   0.581   2.961   8.187
 3712TIP3    H234590   0.648   3.024   8.067
 3713TIP3   OH234591   1.207   3.133   8.171
 3713TIP3    H134592   1.144   3.140   8.243
 3713TIP3    H234593   1.181   3.053   8.125
 3714TIP3   OH234594   0.617   2.869   8.339
 3714TIP3    H134595   0.546   2.812   8.367
 3714TIP3    H234596   0.682   2.810   8.301
 3715TIP3   OH234597   0.785   2.696   8.205
 3715TIP3    H134598   0.771   2.711   8.112
 3715TIP3    H234599   0.880   2.691   8.215
 3716TIP3   OH234600   1.725   2.871   8.112
 3716TIP3    H134601   1.733   2.879   8.017
 3716TIP3    H234602   1.705   2.960   8.142
 3717TIP3   OH234603   0.808   3.719   8.367
 3717TIP3    H134604   0.904   3.717   8.373
 3717TIP3    H234605   0.790   3.783   8.298
 3718TIP3   OH234606   0.166   3.181   8.274
 3718TIP3    H134607   0.260   3.200   8.278
 3718TIP3    H234608   0.156   3.124   8.198
 3719TIP3   OH234609   1.862   2.799   8.340
 3719TIP3    H134610   1.817   2.817   8.257
 3719TIP3    H234611   1.822   2.861   8.402
 3720TIP3   OH234612   1.658   2.519   8.204
 3720TIP3    H134613   1.716   2.523   8.128
 3720TIP3    H234614   1.624   2.430   8.204
 3721TIP3   OH234615   1.589   2.257   8.175
 3721TIP3    H134616   1.638   2.204   8.237
 3721TIP3    H234617   1.497   2.235   8.191
 3722TIP3   OH234618   1.775   2.106   8.320
 3722TIP3    H134619   1.808   2.061   8.242
 3722TIP3    H234620   1.843   2.169   8.342
 3723TIP3   OH234621   0.195   1.942   8.365
 3723TIP3    H134622   0.205   2.009   8.299
 3723TIP3    H234623   0.223   1.984   8.447
 3724TIP3   OH234624   0.337   2.122   8.199
 3724TIP3    H134625   0.385   2.054   8.152
 3724TIP3    H234626   0.393   2.145   8.272
 3725TIP3   OH234627   1.083   3.670   8.345
 3725TIP3    H134628   1.178   3.666   8.349
 3725TIP3    H234629   1.060   3.623   8.265
 3726TIP3   OH234630   0.350   3.659   8.195
 3726TIP3    H134631   0.318   3.678   8.284
 3726TIP3    H234632   0.423   3.599   8.209
 3727TIP3   OH234633   2.961   2.707   8.245
 3727TIP3    H134634   3.011   2.739   8.319
 3727TIP3    H234635   3.019   2.645   8.201
 3728TIP3   OH234636   3.174   2.775   8.416
 3728TIP3    H134637   3.205   2.829   8.489
 3728TIP3    H234638   3.227   2.803   8.342
 3729TIP3   OH234639   3.531   1.906   8.428
 3729TIP3    H134640   3.438   1.918   8.408
 3729TIP3    H234641   3.572   1.989   8.404
 3730TIP3   OH234642   3.690   3.407   8.256
 3730TIP3    H134643   3.729   3.494   8.263
 3730TIP3    H234644   3.760   3.347   8.281
 3731TIP3   OH234645   3.224   3.599   8.337
 3731TIP3    H134646   3.265   3.547   8.268
 3731TIP3    H234647   3.259   3.563   8.418
 3732TIP3   OH234648   3.333   2.860   8.215
 3732TIP3    H134649   3.305   2.855   8.124
 3732TIP3    H234650   3.426   2.884   8.210
 3733TIP3   OH234651   2.900   2.206   8.319
 3733TIP3    H134652   2.827   2.244   8.367
 3733TIP3    H234653   2.859   2.144   8.258
 3734TIP3   OH234654   2.512   2.270   8.136
 3734TIP3    H134655   2.477   2.232   8.216
 3734TIP3    H234656   2.436   2.273   8.077
 3735TIP3   OH234657   1.956   2.300   8.389
 3735TIP3    H134658   2.032   2.334   8.342
 3735TIP3    H234659   1.908   2.378   8.417
 3736TIP3   OH234660   2.417   2.603   8.291
 3736TIP3    H134661   2.332   2.561   8.278
 3736TIP3    H234662   2.480   2.533   8.278
 3737TIP3   OH234663   3.154   2.326   8.289
 3737TIP3    H134664   3.070   2.285   8.311
 3737TIP3    H234665   3.176   2.377   8.367
 3738TIP3   OH234666   3.212   2.513   8.491
 3738TIP3    H134667   3.295   2.514   8.539
 3738TIP3    H234668   3.201   2.603   8.460
 3739TIP3   OH234669   2.937   3.164   8.408
 3739TIP3    H134670   2.889   3.247   8.404
 3739TIP3    H234671   2.944   3.145   8.501
 3740TIP3   OH234672   3.706   2.537   8.453
 3740TIP3    H134673   3.671   2.490   8.377
 3740TIP3    H234674   3.719   2.626   8.423
 3741TIP3   OH234675   2.116   2.777   8.239
 3741TIP3    H134676   2.168   2.840   8.290
 3741TIP3    H234677   2.027   2.787   8.273
 3742TIP3   OH234678   3.314   3.224   8.319
 3742TIP3    H134679   3.309   3.273   8.401
 3742TIP3    H234680   3.228   3.183   8.310
 3743TIP3   OH234681   2.708   3.279   8.116
 3743TIP3    H134682   2.697   3.197   8.067
 3743TIP3    H234683   2.667   3.262   8.201
 3744TIP3   OH234684   2.527   3.226   8.339
 3744TIP3    H134685   2.521   3.172   8.418
 3744TIP3    H234686   2.529   3.316   8.371
 3745TIP3   OH234687   2.214   2.943   8.433
 3745TIP3    H134688   2.165   2.902   8.505
 3745TIP3    H234689   2.289   2.983   8.476
 3746TIP3   OH234690   2.814   3.409   8.396
 3746TIP3    H134691   2.726   3.430   8.426
 3746TIP3    H234692   2.847   3.490   8.359
 3747TIP3   OH234693   2.557   3.485   8.460
 3747TIP3    H134694   2.569   3.573   8.424
 3747TIP3    H234695   2.541   3.500   8.553
 3748TIP3   OH234696   2.436   2.145   8.365
 3748TIP3    H134697   2.457   2.197   8.442
 3748TIP3    H234698   2.474   2.059   8.382
 3749TIP3   OH234699   2.245   3.274   8.249
 3749TIP3    H134700   2.289   3.359   8.245
 3749TIP3    H234701   2.314   3.212   8.272
 3750TIP3   OH234702   2.114   2.501   8.242
 3750TIP3    H134703   2.115   2.596   8.242
 3750TIP3    H234704   2.066   2.476   8.163
 3751TIP3   OH234705   2.883   3.494   8.108
 3751TIP3    H134706   2.830   3.417   8.130
 3751TIP3    H234707   2.965   3.458   8.075
 3752TIP3   OH234708   3.332   3.439   8.143
 3752TIP3    H134709   3.351   3.361   8.196
 3752TIP3    H234710   3.409   3.449   8.087
 3753TIP3   OH234711   2.468   3.002   8.138
 3753TIP3    H134712   2.483   3.058   8.214
 3753TIP3    H234713   2.531   3.033   8.072
 3754TIP3   OH234714   3.040   3.151   8.154
 3754TIP3    H134715   2.997   3.147   8.239
 3754TIP3    H234716   3.027   3.064   8.117
 3755TIP3   OH234717   2.548   2.831   8.371
 3755TIP3    H134718   2.489   2.756   8.374
 3755TIP3    H234719   2.625   2.804   8.421
 3756TIP3   OH234720   2.700   2.622   8.203
 3756TIP3    H134721   2.716   2.548   8.144
 3756TIP3    H234722   2.787   2.658   8.222
 3757TIP3   OH234723   3.597   2.914   8.149
 3757TIP3    H134724   3.586   2.898   8.055
 3757TIP3    H234725   3.595   3.009   8.157
 3758TIP3   OH234726   2.687   3.727   8.379
 3758TIP3    H134727   2.781   3.711   8.372
 3758TIP3    H234728   2.669   3.791   8.310
 3759TIP3   OH234729   1.984   3.192   8.282
 3759TIP3    H134730   2.075   3.222   8.279
 3759TIP3    H234731   1.977   3.127   8.212
 3760TIP3   OH234732   3.732   2.784   8.344
 3760TIP3    H134733   3.683   2.823   8.271
 3760TIP3    H234734   3.718   2.843   8.417
 3761TIP3   OH234735   3.602   2.514   8.190
 3761TIP3    H134736   3.531   2.569   8.156
 3761TIP3    H234737   3.565   2.426   8.192
 3762TIP3   OH234738   3.479   2.276   8.217
 3762TIP3    H134739   3.542   2.213   8.254
 3762TIP3    H234740   3.402   2.268   8.273
 3763TIP3   OH234741   3.681   2.117   8.324
 3763TIP3    H134742   3.709   2.061   8.252
 3763TIP3    H234743   3.761   2.164   8.350
 3764TIP3   OH234744   2.059   1.960   8.386
 3764TIP3    H134745   2.084   2.021   8.316
 3764TIP3    H234746   2.102   1.995   8.464
 3765TIP3   OH234747   2.210   2.125   8.209
 3765TIP3    H134748   2.250   2.057   8.155
 3765TIP3    H234749   2.272   2.141   8.279
 3766TIP3   OH234750   2.947   3.646   8.332
 3766TIP3    H134751   3.041   3.647   8.349
 3766TIP3    H234752   2.940   3.622   8.239
 3767TIP3   OH234753   2.189   3.645   8.177
 3767TIP3    H134754   2.150   3.690   8.251
 3767TIP3    H234755   2.260   3.592   8.215
 3768TIP3   OH234756   4.813   2.705   8.252
 3768TIP3    H134757   4.870   2.742   8.320
 3768TIP3    H234758   4.868   2.642   8.206
 3769TIP3   OH234759   5.043   2.782   8.401
 3769TIP3    H134760   5.073   2.833   8.477
 3769TIP3    H234761   5.099   2.811   8.329
 3770TIP3   OH234762   5.419   1.905   8.423
 3770TIP3    H134763   5.338   1.932   8.467
 3770TIP3    H234764   5.457   1.987   8.391
 3771TIP3   OH234765   5.566   3.386   8.222
 3771TIP3    H134766   5.581   3.474   8.256
 3771TIP3    H234767   5.638   3.334   8.255
 3772TIP3   OH234768   5.103   3.606   8.330
 3772TIP3    H134769   5.147   3.548   8.268
 3772TIP3    H234770   5.139   3.582   8.415
 3773TIP3   OH234771   5.219   2.872   8.218
 3773TIP3    H134772   5.190   2.876   8.127
 3773TIP3    H234773   5.315   2.879   8.213
 3774TIP3   OH234774   4.774   2.224   8.328
 3774TIP3    H134775   4.691   2.252   8.289
 3774TIP3    H234776   4.812   2.164   8.263
 3775TIP3   OH234777   4.446   2.291   8.164
 3775TIP3    H134778   4.400   2.258   8.241
 3775TIP3    H234779   4.385   2.352   8.124
 3776TIP3   OH234780   3.895   2.264   8.441
 3776TIP3    H134781   3.966   2.214   8.479
 3776TIP3    H234782   3.892   2.345   8.492
 3777TIP3   OH234783   4.271   2.575   8.263
 3777TIP3    H134784   4.266   2.538   8.175
 3777TIP3    H234785   4.356   2.620   8.265
 3778TIP3   OH234786   5.036   2.338   8.297
 3778TIP3    H134787   4.952   2.306   8.330
 3778TIP3    H234788   5.072   2.389   8.370
 3779TIP3   OH234789   5.103   2.526   8.490
 3779TIP3    H134790   5.191   2.531   8.526
 3779TIP3    H234791   5.087   2.614   8.456
 3780TIP3   OH234792   4.825   3.159   8.407
 3780TIP3    H134793   4.780   3.244   8.407
 3780TIP3    H234794   4.816   3.126   8.496
 3781TIP3   OH234795   5.605   2.539   8.423
 3781TIP3    H134796   5.563   2.513   8.340
 3781TIP3    H234797   5.622   2.632   8.413
 3782TIP3   OH234798   3.967   2.834   8.209
 3782TIP3    H134799   4.033   2.883   8.258
 3782TIP3    H234800   3.899   2.815   8.273
 3783TIP3   OH234801   5.196   3.212   8.302
 3783TIP3    H134802   5.166   3.240   8.389
 3783TIP3    H234803   5.117   3.177   8.260
 3784TIP3   OH234804   5.626   3.632   8.333
 3784TIP3    H134805   5.692   3.702   8.343
 3784TIP3    H234806   5.546   3.669   8.370
 3785TIP3   OH234807   4.569   3.282   8.140
 3785TIP3    H134808   4.567   3.199   8.093
 3785TIP3    H234809   4.521   3.266   8.221
 3786TIP3   OH234810   4.410   3.260   8.368
 3786TIP3    H134811   4.394   3.198   8.439
 3786TIP3    H234812   4.420   3.345   8.412
 3787TIP3   OH234813   4.080   2.950   8.433
 3787TIP3    H134814   4.049   2.894   8.505
 3787TIP3    H234815   4.159   2.991   8.468
 3788TIP3   OH234816   4.709   3.406   8.417
 3788TIP3    H134817   4.620   3.431   8.441
 3788TIP3    H234818   4.729   3.460   8.340
 3789TIP3   OH234819   4.458   3.505   8.486
 3789TIP3    H134820   4.468   3.583   8.432
 3789TIP3    H234821   4.463   3.537   8.576
 3790TIP3   OH234822   4.330   2.148   8.371
 3790TIP3    H134823   4.354   2.197   8.450
 3790TIP3    H234824   4.395   2.078   8.366
 3791TIP3   OH234825   4.147   3.248   8.231
 3791TIP3    H134826   4.217   3.303   8.266
 3791TIP3    H234827   4.191   3.168   8.202
 3792TIP3   OH234828   3.993   2.499   8.265
 3792TIP3    H134829   4.080   2.537   8.277
 3792TIP3    H234830   3.994   2.418   8.315
 3793TIP3   OH234831   4.765   3.477   8.139
 3793TIP3    H134832   4.701   3.406   8.137
 3793TIP3    H234833   4.843   3.440   8.099
 3794TIP3   OH234834   5.225   3.442   8.148
 3794TIP3    H134835   5.243   3.364   8.201
 3794TIP3    H234836   5.302   3.450   8.091
 3795TIP3   OH234837   4.296   3.024   8.150
 3795TIP3    H134838   4.324   2.979   8.229
 3795TIP3    H234839   4.376   3.035   8.099
 3796TIP3   OH234840   4.959   3.144   8.170
 3796TIP3    H134841   4.905   3.144   8.249
 3796TIP3    H234842   4.933   3.064   8.123
 3797TIP3   OH234843   4.433   2.868   8.357
 3797TIP3    H134844   4.484   2.829   8.428
 3797TIP3    H234845   4.462   2.822   8.278
 3798TIP3   OH234846   4.541   2.692   8.180
 3798TIP3    H134847   4.536   2.713   8.087
 3798TIP3    H234848   4.634   2.691   8.200
 3799TIP3   OH234849   5.492   2.901   8.149
 3799TIP3    H134850   5.473   2.875   8.058
 3799TIP3    H234851   5.477   2.996   8.150
 3800TIP3   OH234852   4.569   3.745   8.388
 3800TIP3    H134853   4.662   3.722   8.380
 3800TIP3    H234854   4.553   3.802   8.313
 3801TIP3   OH234855   3.885   3.209   8.300
 3801TIP3    H134856   3.978   3.227   8.292
 3801TIP3    H234857   3.863   3.157   8.223
 3802TIP3   OH234858   5.629   2.802   8.361
 3802TIP3    H134859   5.578   2.827   8.284
 3802TIP3    H234860   5.599   2.861   8.430
 3803TIP3   OH234861   5.476   2.502   8.179
 3803TIP3    H134862   5.433   2.544   8.103
 3803TIP3    H234863   5.438   2.414   8.182
 3804TIP3   OH234864   5.361   2.253   8.185
 3804TIP3    H134865   5.422   2.202   8.239
 3804TIP3    H234866   5.280   2.256   8.237
 3805TIP3   OH234867   5.557   2.111   8.310
 3805TIP3    H134868   5.592   2.058   8.239
 3805TIP3    H234869   5.629   2.167   8.337
 3806TIP3   OH234870   3.940   1.940   8.365
 3806TIP3    H134871   3.989   2.003   8.313
 3806TIP3    H234872   4.001   1.909   8.431
 3807TIP3   OH234873   4.110   2.111   8.217
 3807TIP3    H134874   4.152   2.051   8.155
 3807TIP3    H234875   4.179   2.133   8.279
 3808TIP3   OH234876   4.829   3.667   8.332
 3808TIP3    H134877   4.923   3.662   8.344
 3808TIP3    H234878   4.813   3.622   8.249
 3809TIP3   OH234879   6.714   2.697   8.227
 3809TIP3    H134880   6.762   2.721   8.306
 3809TIP3    H234881   6.770   2.634   8.183
 3810TIP3   OH234882   6.911   2.769   8.409
 3810TIP3    H134883   6.926   2.819   8.489
 3810TIP3    H234884   6.973   2.806   8.346
 3811TIP3   OH234885   7.251   1.876   8.432
 3811TIP3    H134886   7.169   1.900   8.475
 3811TIP3    H234887   7.297   1.959   8.419
 3812TIP3   OH234888   7.428   3.379   8.231
 3812TIP3    H134889   7.440   3.465   8.271
 3812TIP3    H234890   7.497   3.325   8.270
 3813TIP3   OH234891   6.969   3.624   8.335
 3813TIP3    H134892   7.015   3.558   8.283
 3813TIP3    H234893   7.006   3.615   8.423
 3814TIP3   OH234894   7.098   2.879   8.247
 3814TIP3    H134895   7.063   2.877   8.158
 3814TIP3    H234896   7.193   2.871   8.235
 3815TIP3   OH234897   6.649   2.262   8.302
 3815TIP3    H134898   6.638   2.263   8.397
 3815TIP3    H234899   6.590   2.193   8.272
 3816TIP3   OH234900   6.312   2.278   8.170
 3816TIP3    H134901   6.273   2.264   8.256
 3816TIP3    H234902   6.258   2.346   8.129
 3817TIP3   OH234903   5.751   2.288   8.380
 3817TIP3    H134904   5.819   2.336   8.332
 3817TIP3    H234905   5.710   2.353   8.436
 3818TIP3   OH234906   6.219   2.576   8.292
 3818TIP3    H134907   6.170   2.538   8.219
 3818TIP3    H234908   6.301   2.605   8.252
 3819TIP3   OH234909   6.925   2.276   8.327
 3819TIP3    H134910   6.829   2.282   8.324
 3819TIP3    H234911   6.951   2.351   8.380
 3820TIP3   OH234912   6.982   2.510   8.474
 3820TIP3    H134913   7.070   2.518   8.513
 3820TIP3    H234914   6.962   2.598   8.443
 3821TIP3   OH234915   6.729   3.162   8.393
 3821TIP3    H134916   6.680   3.244   8.401
 3821TIP3    H234917   6.697   3.108   8.465
 3822TIP3   OH234918   7.468   2.551   8.405
 3822TIP3    H134919   7.414   2.543   8.327
 3822TIP3    H234920   7.519   2.631   8.391
 3823TIP3   OH234921   5.874   2.782   8.233
 3823TIP3    H134922   5.931   2.842   8.282
 3823TIP3    H234923   5.791   2.785   8.281
 3824TIP3   OH234924   7.067   3.213   8.320
 3824TIP3    H134925   7.050   3.235   8.412
 3824TIP3    H234926   6.987   3.169   8.291
 3825TIP3   OH234927   7.462   3.631   8.345
 3825TIP3    H134928   7.489   3.689   8.274
 3825TIP3    H234929   7.380   3.669   8.377
 3826TIP3   OH234930   6.449   3.289   8.140
 3826TIP3    H134931   6.449   3.205   8.093
 3826TIP3    H234932   6.410   3.268   8.225
 3827TIP3   OH234933   6.330   3.240   8.384
 3827TIP3    H134934   6.309   3.176   8.451
 3827TIP3    H234935   6.316   3.325   8.425
 3828TIP3   OH234936   5.980   2.946   8.427
 3828TIP3    H134937   5.934   2.896   8.494
 3828TIP3    H234938   6.057   2.981   8.472
 3829TIP3   OH234939   6.598   3.402   8.416
 3829TIP3    H134940   6.505   3.409   8.437
 3829TIP3    H234941   6.617   3.480   8.364
 3830TIP3   OH234942   6.342   3.498   8.484
 3830TIP3    H134943   6.353   3.585   8.444
 3830TIP3    H234944   6.333   3.516   8.577
 3831TIP3   OH234945   6.172   2.220   8.408
 3831TIP3    H134946   6.107   2.194   8.474
 3831TIP3    H234947   6.244   2.257   8.459
 3832TIP3   OH234948   6.030   3.252   8.279
 3832TIP3    H134949   6.057   3.258   8.370
 3832TIP3    H234950   6.091   3.189   8.240
 3833TIP3   OH234951   5.864   2.497   8.228
 3833TIP3    H134952   5.898   2.584   8.249
 3833TIP3    H234953   5.780   2.514   8.186
 3834TIP3   OH234954   6.641   3.486   8.123
 3834TIP3    H134955   6.577   3.415   8.135
 3834TIP3    H234956   6.718   3.443   8.087
 3835TIP3   OH234957   7.089   3.442   8.167
 3835TIP3    H134958   7.100   3.365   8.221
 3835TIP3    H234959   7.163   3.441   8.107
 3836TIP3   OH234960   6.188   3.044   8.154
 3836TIP3    H134961   6.201   2.982   8.226
 3836TIP3    H234962   6.274   3.049   8.112
 3837TIP3   OH234963   6.821   3.150   8.139
 3837TIP3    H134964   6.779   3.151   8.225
 3837TIP3    H234965   6.800   3.064   8.103
 3838TIP3   OH234966   6.274   2.853   8.345
 3838TIP3    H134967   6.220   2.778   8.372
 3838TIP3    H234968   6.345   2.814   8.294
 3839TIP3   OH234969   6.442   2.704   8.184
 3839TIP3    H134970   6.440   2.732   8.092
 3839TIP3    H234971   6.535   2.696   8.205
 3840TIP3   OH234972   7.373   2.901   8.183
 3840TIP3    H134973   7.353   2.863   8.098
 3840TIP3    H234974   7.348   2.993   8.175
 3841TIP3   OH234975   6.440   3.753   8.385
 3841TIP3    H134976   6.531   3.722   8.379
 3841TIP3    H234977   6.429   3.810   8.309
 3842TIP3   OH234978   5.764   3.201   8.288
 3842TIP3    H134979   5.858   3.218   8.292
 3842TIP3    H234980   5.753   3.137   8.218
 3843TIP3   OH234981   7.587   2.804   8.342
 3843TIP3    H134982   7.523   2.824   8.274
 3843TIP3    H234983   7.556   2.852   8.419
 3844TIP3   OH234984   7.314   2.502   8.188
 3844TIP3    H134985   7.274   2.527   8.105
 3844TIP3    H234986   7.295   2.409   8.197
 3845TIP3   OH234987   7.244   2.239   8.194
 3845TIP3    H134988   7.255   2.196   8.279
 3845TIP3    H234989   7.157   2.213   8.164
 3846TIP3   OH234990   7.438   2.077   8.370
 3846TIP3    H134991   7.456   2.028   8.290
 3846TIP3    H234992   7.496   2.152   8.366
 3847TIP3   OH234993   5.832   1.947   8.362
 3847TIP3    H134994   5.863   2.025   8.316
 3847TIP3    H234995   5.868   1.954   8.450
 3848TIP3   OH234996   5.995   2.127   8.215
 3848TIP3    H134997   6.048   2.067   8.162
 3848TIP3    H234998   6.057   2.163   8.279
 3849TIP3   OH234999   6.693   3.657   8.329
 3849TIP3    H135000   6.788   3.659   8.341
 3849TIP3    H235001   6.681   3.618   8.243
 3850TIP3   OH235002   5.945   3.644   8.191
 3850TIP3    H135003   5.904   3.692   8.262
 3850TIP3    H235004   5.973   3.561   8.231
 3851TIP3   OH235005   7.593   2.308   8.365
 3851TIP3    H135006   7.599   2.323   8.270
 3851TIP3    H235007   7.547   2.385   8.398
 3852TIP3   OH235008   7.602   3.174   8.316
 3852TIP3    H135009   7.697   3.188   8.311
 3852TIP3    H235010   7.581   3.127   8.236
 3853TIP3   OH235011   1.050   4.595   8.244
 3853TIP3    H135012   1.103   4.634   8.313
 3853TIP3    H235013   1.107   4.530   8.203
 3854TIP3   OH235014   1.263   4.685   8.396
 3854TIP3    H135015   1.299   4.718   8.478
 3854TIP3    H235016   1.326   4.712   8.329
 3855TIP3   OH235017   1.649   3.789   8.431
 3855TIP3    H135018   1.564   3.816   8.466
 3855TIP3    H235019   1.690   3.870   8.401
 3856TIP3   OH235020   1.793   5.255   8.239
 3856TIP3    H135021   1.821   5.345   8.254
 3856TIP3    H235022   1.867   5.201   8.269
 3857TIP3   OH235023   1.357   5.491   8.339
 3857TIP3    H135024   1.385   5.430   8.270
 3857TIP3    H235025   1.390   5.453   8.420
 3858TIP3   OH235026   1.465   4.760   8.233
 3858TIP3    H135027   1.437   4.761   8.141
 3858TIP3    H235028   1.561   4.758   8.228
 3859TIP3   OH235029   0.990   4.121   8.332
 3859TIP3    H135030   0.904   4.157   8.311
 3859TIP3    H235031   1.002   4.049   8.271
 3860TIP3   OH235032   0.684   4.174   8.171
 3860TIP3    H135033   0.629   4.140   8.242
 3860TIP3    H235034   0.635   4.249   8.137
 3861TIP3   OH235035   0.179   4.215   8.453
 3861TIP3    H135036   0.185   4.264   8.371
 3861TIP3    H235037   0.087   4.188   8.457
 3862TIP3   OH235038   0.589   4.447   8.321
 3862TIP3    H135039   0.529   4.422   8.251
 3862TIP3    H235040   0.666   4.482   8.275
 3863TIP3   OH235041   1.258   4.218   8.297
 3863TIP3    H135042   1.170   4.190   8.322
 3863TIP3    H235043   1.285   4.279   8.367
 3864TIP3   OH235044   1.309   4.423   8.476
 3864TIP3    H135045   1.402   4.418   8.497
 3864TIP3    H235046   1.296   4.513   8.445
 3865TIP3   OH235047   1.108   5.041   8.428
 3865TIP3    H135048   1.050   5.118   8.427
 3865TIP3    H235049   1.102   5.008   8.517
 3866TIP3   OH235050   1.856   4.423   8.426
 3866TIP3    H135051   1.809   4.403   8.345
 3866TIP3    H235052   1.861   4.519   8.428
 3867TIP3   OH235053   0.145   4.650   8.287
 3867TIP3    H135054   0.201   4.711   8.336
 3867TIP3    H235055   0.057   4.667   8.318
 3868TIP3   OH235056   1.416   5.094   8.308
 3868TIP3    H135057   1.388   5.086   8.400
 3868TIP3    H235058   1.341   5.061   8.258
 3869TIP3   OH235059   1.831   5.532   8.274
 3869TIP3    H135060   1.855   5.585   8.198
 3869TIP3    H235061   1.736   5.532   8.274
 3870TIP3   OH235062   0.801   5.179   8.129
 3870TIP3    H135063   0.803   5.096   8.081
 3870TIP3    H235064   0.758   5.158   8.212
 3871TIP3   OH235065   0.685   5.171   8.383
 3871TIP3    H135066   0.672   5.100   8.446
 3871TIP3    H235067   0.664   5.250   8.432
 3872TIP3   OH235068   0.290   4.849   8.415
 3872TIP3    H135069   0.244   4.899   8.482
 3872TIP3    H235070   0.357   4.908   8.381
 3873TIP3   OH235071   0.950   5.266   8.405
 3873TIP3    H135072   0.858   5.241   8.403
 3873TIP3    H235073   0.963   5.315   8.324
 3874TIP3   OH235074   0.658   5.412   0.008
 3874TIP3    H135075   0.703   5.485  -0.033
 3874TIP3    H235076   0.585   5.452   0.056
 3875TIP3   OH235077   0.532   4.057   8.367
 3875TIP3    H135078   0.560   4.114   8.439
 3875TIP3    H235079   0.573   3.973   8.386
 3876TIP3   OH235080   0.437   5.068   8.292
 3876TIP3    H135081   0.510   5.121   8.323
 3876TIP3    H235082   0.473   5.014   8.222
 3877TIP3   OH235083   0.131   4.379   8.232
 3877TIP3    H135084   0.140   4.468   8.266
 3877TIP3    H235085   0.133   4.389   8.137
 3878TIP3   OH235086   0.999   5.367   8.145
 3878TIP3    H135087   0.930   5.302   8.130
 3878TIP3    H235088   1.075   5.331   8.100
 3879TIP3   OH235089   1.451   5.322   8.151
 3879TIP3    H135090   1.463   5.241   8.201
 3879TIP3    H235091   1.522   5.321   8.086
 3880TIP3   OH235092   0.554   4.895   8.119
 3880TIP3    H135093   0.572   4.837   8.193
 3880TIP3    H235094   0.639   4.906   8.076
 3881TIP3   OH235095   1.187   5.030   8.165
 3881TIP3    H135096   1.146   5.024   8.252
 3881TIP3    H235097   1.161   4.950   8.121
 3882TIP3   OH235098   0.634   4.744   8.335
 3882TIP3    H135099   0.611   4.681   8.403
 3882TIP3    H235100   0.691   4.696   8.275
 3883TIP3   OH235101   0.785   4.582   8.177
 3883TIP3    H135102   0.780   4.605   8.084
 3883TIP3    H235103   0.879   4.583   8.197
 3884TIP3   OH235104   1.746   4.786   8.132
 3884TIP3    H135105   1.716   4.763   8.044
 3884TIP3    H235106   1.714   4.875   8.146
 3885TIP3   OH235107   0.808   5.622   8.397
 3885TIP3    H135108   0.901   5.602   8.391
 3885TIP3    H235109   0.792   5.679   8.321
 3886TIP3   OH235110   0.173   5.092   8.241
 3886TIP3    H135111   0.265   5.100   8.263
 3886TIP3    H235112   0.168   5.018   8.180
 3887TIP3   OH235113   1.853   4.691   8.365
 3887TIP3    H135114   1.813   4.709   8.280
 3887TIP3    H235115   1.804   4.744   8.427
 3888TIP3   OH235116   1.724   4.385   8.189
 3888TIP3    H135117   1.695   4.439   8.115
 3888TIP3    H235118   1.667   4.309   8.187
 3889TIP3   OH235119   1.586   4.143   8.195
 3889TIP3    H135120   1.639   4.095   8.259
 3889TIP3    H235121   1.500   4.151   8.237
 3890TIP3   OH235122   1.790   3.997   8.326
 3890TIP3    H135123   1.817   3.952   8.246
 3890TIP3    H235124   1.861   4.059   8.344
 3891TIP3   OH235125   0.236   3.795   8.417
 3891TIP3    H135126   0.227   3.856   8.343
 3891TIP3    H235127   0.239   3.852   8.494
 3892TIP3   OH235128   0.310   3.988   8.223
 3892TIP3    H135129   0.360   3.930   8.165
 3892TIP3    H235130   0.375   4.023   8.283
 3893TIP3   OH235131   1.077   5.557   8.340
 3893TIP3    H135132   1.172   5.547   8.343
 3893TIP3    H235133   1.050   5.507   8.262
 3894TIP3   OH235134   0.344   5.530   8.202
 3894TIP3    H135135   0.296   5.564   8.277
 3894TIP3    H235136   0.410   5.472   8.240
 3895TIP3   OH235137   2.971   4.527   8.275
 3895TIP3    H135138   3.018   4.571   8.346
 3895TIP3    H235139   3.040   4.499   8.215
 3896TIP3   OH235140   3.178   4.654   8.412
 3896TIP3    H135141   3.208   4.708   8.486
 3896TIP3    H235142   3.226   4.688   8.337
 3897TIP3   OH235143   3.464   3.851   8.415
 3897TIP3    H135144   3.433   3.762   8.401
 3897TIP3    H235145   3.559   3.845   8.404
 3898TIP3   OH235146   3.684   5.268   8.247
 3898TIP3    H135147   3.703   5.357   8.276
 3898TIP3    H235148   3.759   5.217   8.276
 3899TIP3   OH235149   3.227   5.500   8.333
 3899TIP3    H135150   3.266   5.438   8.271
 3899TIP3    H235151   3.260   5.472   8.418
 3900TIP3   OH235152   3.321   4.765   8.212
 3900TIP3    H135153   3.298   4.773   8.119
 3900TIP3    H235154   3.416   4.773   8.214
 3901TIP3   OH235155   2.872   4.185   8.316
 3901TIP3    H135156   2.871   4.161   8.408
 3901TIP3    H235157   2.868   4.102   8.269
 3902TIP3   OH235158   2.529   4.139   8.163
 3902TIP3    H135159   2.486   4.128   8.247
 3902TIP3    H235160   2.475   4.203   8.116
 3903TIP3   OH235161   1.980   4.180   8.393
 3903TIP3    H135162   2.057   4.215   8.347
 3903TIP3    H235163   1.929   4.257   8.416
 3904TIP3   OH235164   2.399   4.454   8.289
 3904TIP3    H135165   2.308   4.428   8.305
 3904TIP3    H235166   2.416   4.428   8.198
 3905TIP3   OH235167   3.157   4.235   8.283
 3905TIP3    H135168   3.067   4.218   8.310
 3905TIP3    H235169   3.196   4.280   8.358
 3906TIP3   OH235170   3.231   4.396   8.496
 3906TIP3    H135171   3.319   4.393   8.535
 3906TIP3    H235172   3.222   4.486   8.465
 3907TIP3   OH235173   2.953   5.034   8.394
 3907TIP3    H135174   2.910   5.119   8.397
 3907TIP3    H235175   2.963   5.008   8.485
 3908TIP3   OH235176   3.736   4.430   8.435
 3908TIP3    H135177   3.682   4.397   8.363
 3908TIP3    H235178   3.748   4.523   8.414
 3909TIP3   OH235179   2.100   4.664   8.248
 3909TIP3    H135180   2.153   4.726   8.298
 3909TIP3    H235181   2.013   4.672   8.286
 3910TIP3   OH235182   3.320   5.109   8.336
 3910TIP3    H135183   3.318   5.166   8.412
 3910TIP3    H235184   3.236   5.063   8.337
 3911TIP3   OH235185   3.744   5.517   8.356
 3911TIP3    H135186   3.811   5.585   8.351
 3911TIP3    H235187   3.663   5.565   8.373
 3912TIP3   OH235188   2.680   5.203   8.130
 3912TIP3    H135189   2.663   5.134   8.066
 3912TIP3    H235190   2.642   5.170   8.212
 3913TIP3   OH235191   2.538   5.130   8.361
 3913TIP3    H135192   2.529   5.065   8.431
 3913TIP3    H235193   2.553   5.213   8.407
 3914TIP3   OH235194   2.219   4.826   8.432
 3914TIP3    H135195   2.170   4.784   8.502
 3914TIP3    H235196   2.291   4.870   8.476
 3915TIP3   OH235197   2.839   5.282   8.412
 3915TIP3    H135198   2.752   5.307   8.443
 3915TIP3    H235199   2.864   5.353   8.353
 3916TIP3   OH235200   2.587   5.374   8.489
 3916TIP3    H135201   2.603   5.462   8.453
 3916TIP3    H235202   2.570   5.389   8.582
 3917TIP3   OH235203   2.399   4.115   8.399
 3917TIP3    H135204   2.331   4.164   8.445
 3917TIP3    H235205   2.474   4.116   8.459
 3918TIP3   OH235206   2.266   5.137   8.260
 3918TIP3    H135207   2.344   5.177   8.299
 3918TIP3    H235208   2.299   5.060   8.214
 3919TIP3   OH235209   2.131   4.387   8.255
 3919TIP3    H135210   2.115   4.481   8.264
 3919TIP3    H235211   2.103   4.367   8.166
 3920TIP3   OH235212   2.894   5.375   8.130
 3920TIP3    H135213   2.826   5.308   8.131
 3920TIP3    H235214   2.970   5.332   8.090
 3921TIP3   OH235215   3.336   5.325   8.154
 3921TIP3    H135216   3.366   5.251   8.207
 3921TIP3    H235217   3.405   5.338   8.089
 3922TIP3   OH235218   2.417   4.920   8.160
 3922TIP3    H135219   2.402   4.845   8.218
 3922TIP3    H235220   2.484   4.972   8.204
 3923TIP3   OH235221   3.024   5.022   8.127
 3923TIP3    H135222   2.998   5.023   8.219
 3923TIP3    H235223   3.015   4.930   8.101
 3924TIP3   OH235224   2.514   4.704   8.351
 3924TIP3    H135225   2.451   4.631   8.354
 3924TIP3    H235226   2.580   4.676   8.289
 3925TIP3   OH235227   2.699   4.595   8.175
 3925TIP3    H135228   2.665   4.593   8.085
 3925TIP3    H235229   2.776   4.653   8.170
 3926TIP3   OH235230   3.595   4.791   8.154
 3926TIP3    H135231   3.581   4.769   8.062
 3926TIP3    H235232   3.587   4.886   8.157
 3927TIP3   OH235233   2.689   5.619   8.391
 3927TIP3    H135234   2.782   5.599   8.383
 3927TIP3    H235235   2.668   5.671   8.313
 3928TIP3   OH235236   2.003   5.086   8.300
 3928TIP3    H135237   2.097   5.105   8.296
 3928TIP3    H235238   1.989   5.021   8.232
 3929TIP3   OH235239   3.743   4.692   8.359
 3929TIP3    H135240   3.689   4.718   8.284
 3929TIP3    H235241   3.724   4.758   8.426
 3930TIP3   OH235242   3.558   4.373   8.238
 3930TIP3    H135243   3.530   4.433   8.169
 3930TIP3    H235244   3.526   4.287   8.210
 3931TIP3   OH235245   3.491   4.096   8.212
 3931TIP3    H135246   3.562   4.036   8.237
 3931TIP3    H235247   3.440   4.107   8.292
 3932TIP3   OH235248   2.071   3.818   8.364
 3932TIP3    H135249   2.089   3.897   8.313
 3932TIP3    H235250   2.098   3.840   8.453
 3933TIP3   OH235251   2.214   4.015   8.215
 3933TIP3    H135252   2.262   3.956   8.157
 3933TIP3    H235253   2.278   4.040   8.282
 3934TIP3   OH235254   2.948   5.544   8.337
 3934TIP3    H135255   3.043   5.547   8.351
 3934TIP3    H235256   2.939   5.505   8.250
 3935TIP3   OH235257   2.211   5.498   8.187
 3935TIP3    H135258   2.181   5.468   8.272
 3935TIP3    H235259   2.292   5.449   8.171
 3936TIP3   OH235260   4.817   4.590   8.258
 3936TIP3    H135261   4.876   4.628   8.323
 3936TIP3    H235262   4.872   4.530   8.207
 3937TIP3   OH235263   5.046   4.657   8.413
 3937TIP3    H135264   5.071   4.712   8.487
 3937TIP3    H235265   5.104   4.683   8.342
 3938TIP3   OH235266   5.413   3.778   8.433
 3938TIP3    H135267   5.324   3.803   8.458
 3938TIP3    H235268   5.453   3.859   8.403
 3939TIP3   OH235269   5.585   5.268   8.236
 3939TIP3    H135270   5.588   5.357   8.271
 3939TIP3    H235271   5.658   5.223   8.278
 3940TIP3   OH235272   5.082   5.519   8.320
 3940TIP3    H135273   5.135   5.450   8.280
 3940TIP3    H235274   5.131   5.544   8.398
 3941TIP3   OH235275   5.235   4.738   8.236
 3941TIP3    H135276   5.196   4.755   8.150
 3941TIP3    H235277   5.329   4.750   8.223
 3942TIP3   OH235278   4.743   4.112   8.337
 3942TIP3    H135279   4.672   4.171   8.314
 3942TIP3    H235280   4.725   4.032   8.287
 3943TIP3   OH235281   4.434   4.168   8.181
 3943TIP3    H135282   4.376   4.135   8.250
 3943TIP3    H235283   4.380   4.230   8.132
 3944TIP3   OH235284   4.327   4.445   8.310
 3944TIP3    H135285   4.279   4.414   8.233
 3944TIP3    H235286   4.404   4.489   8.274
 3945TIP3   OH235287   5.021   4.203   8.297
 3945TIP3    H135288   4.935   4.178   8.328
 3945TIP3    H235289   5.057   4.259   8.366
 3946TIP3   OH235290   5.115   4.396   8.473
 3946TIP3    H135291   5.197   4.404   8.522
 3946TIP3    H235292   5.093   4.486   8.448
 3947TIP3   OH235293   4.828   5.039   8.396
 3947TIP3    H135294   4.785   5.125   8.392
 3947TIP3    H235295   4.811   5.009   8.486
 3948TIP3   OH235296   5.581   4.423   8.412
 3948TIP3    H135297   5.540   4.410   8.326
 3948TIP3    H235298   5.611   4.514   8.411
 3949TIP3   OH235299   3.982   4.700   8.220
 3949TIP3    H135300   4.042   4.755   8.270
 3949TIP3    H235301   3.902   4.697   8.274
 3950TIP3   OH235302   5.194   5.084   8.303
 3950TIP3    H135303   5.155   5.124   8.381
 3950TIP3    H235304   5.120   5.051   8.253
 3951TIP3   OH235305   5.611   5.522   8.358
 3951TIP3    H135306   5.680   5.588   8.355
 3951TIP3    H235307   5.530   5.572   8.364
 3952TIP3   OH235308   4.578   5.196   8.105
 3952TIP3    H135309   4.626   5.161   8.029
 3952TIP3    H235310   4.542   5.119   8.149
 3953TIP3   OH235311   4.385   5.148   8.379
 3953TIP3    H135312   4.395   5.090   8.454
 3953TIP3    H235313   4.413   5.234   8.412
 3954TIP3   OH235314   4.083   4.834   8.437
 3954TIP3    H135315   4.055   4.779   8.510
 3954TIP3    H235316   4.163   4.876   8.467
 3955TIP3   OH235317   4.712   5.287   8.392
 3955TIP3    H135318   4.624   5.316   8.415
 3955TIP3    H235319   4.730   5.329   8.309
 3956TIP3   OH235320   4.466   5.392   8.479
 3956TIP3    H135321   4.477   5.475   8.433
 3956TIP3    H235322   4.473   5.415   8.572
 3957TIP3   OH235323   4.295   4.022   8.388
 3957TIP3    H135324   4.344   4.073   8.453
 3957TIP3    H235325   4.352   3.948   8.367
 3958TIP3   OH235326   4.144   5.125   8.242
 3958TIP3    H135327   4.219   5.165   8.286
 3958TIP3    H235328   4.181   5.047   8.198
 3959TIP3   OH235329   3.982   4.427   8.181
 3959TIP3    H135330   3.998   4.520   8.201
 3959TIP3    H235331   3.984   4.384   8.267
 3960TIP3   OH235332   4.776   5.386   8.138
 3960TIP3    H135333   4.714   5.317   8.115
 3960TIP3    H235334   4.857   5.363   8.091
 3961TIP3   OH235335   5.220   5.329   8.172
 3961TIP3    H135336   5.242   5.248   8.217
 3961TIP3    H235337   5.288   5.339   8.105
 3962TIP3   OH235338   4.279   4.902   8.145
 3962TIP3    H135339   4.304   4.863   8.229
 3962TIP3    H235340   4.361   4.907   8.096
 3963TIP3   OH235341   4.964   5.013   8.158
 3963TIP3    H135342   4.908   5.016   8.235
 3963TIP3    H235343   4.904   5.019   8.084
 3964TIP3   OH235344   4.421   4.757   8.353
 3964TIP3    H135345   4.453   4.699   8.422
 3964TIP3    H235346   4.460   4.723   8.273
 3965TIP3   OH235347   4.550   4.572   8.189
 3965TIP3    H135348   4.543   4.589   8.095
 3965TIP3    H235349   4.643   4.580   8.208
 3966TIP3   OH235350   5.504   4.788   8.147
 3966TIP3    H135351   5.479   4.766   8.057
 3966TIP3    H235352   5.483   4.881   8.156
 3967TIP3   OH235353   4.554   5.640   8.392
 3967TIP3    H135354   4.648   5.624   8.381
 3967TIP3    H235355   4.530   5.694   8.317
 3968TIP3   OH235356   3.885   5.084   8.311
 3968TIP3    H135357   3.978   5.104   8.303
 3968TIP3    H235358   3.865   5.029   8.235
 3969TIP3   OH235359   5.631   4.690   8.367
 3969TIP3    H135360   5.584   4.713   8.286
 3969TIP3    H235361   5.597   4.752   8.431
 3970TIP3   OH235362   5.464   4.387   8.167
 3970TIP3    H135363   5.422   4.422   8.088
 3970TIP3    H235364   5.429   4.299   8.177
 3971TIP3   OH235365   5.363   4.134   8.190
 3971TIP3    H135366   5.413   4.084   8.255
 3971TIP3    H235367   5.273   4.133   8.224
 3972TIP3   OH235368   5.553   3.987   8.330
 3972TIP3    H135369   5.585   3.940   8.253
 3972TIP3    H235370   5.621   4.052   8.348
 3973TIP3   OH235371   4.813   5.585   8.329
 3973TIP3    H135372   4.908   5.589   8.340
 3973TIP3    H235373   4.801   5.528   8.253
 3974TIP3   OH235374   4.115   5.520   8.184
 3974TIP3    H135375   4.095   5.520   8.278
 3974TIP3    H235376   4.189   5.460   8.176
 3975TIP3   OH235377   6.712   4.563   8.233
 3975TIP3    H135378   6.757   4.593   8.312
 3975TIP3    H235379   6.771   4.498   8.195
 3976TIP3   OH235380   6.901   4.658   8.409
 3976TIP3    H135381   6.904   4.706   8.492
 3976TIP3    H235382   6.969   4.699   8.356
 3977TIP3   OH235383   7.256   3.785   8.433
 3977TIP3    H135384   7.176   3.810   8.481
 3977TIP3    H235385   7.301   3.868   8.417
 3978TIP3   OH235386   7.433   5.263   8.240
 3978TIP3    H135387   7.439   5.349   8.282
 3978TIP3    H235388   7.504   5.212   8.278
 3979TIP3   OH235389   6.970   5.505   8.336
 3979TIP3    H135390   7.018   5.442   8.282
 3979TIP3    H235391   7.007   5.495   8.423
 3980TIP3   OH235392   7.099   4.778   8.267
 3980TIP3    H135393   7.071   4.789   8.175
 3980TIP3    H235394   7.194   4.773   8.262
 3981TIP3   OH235395   6.613   4.112   8.320
 3981TIP3    H135396   6.537   4.170   8.330
 3981TIP3    H235397   6.579   4.036   8.273
 3982TIP3   OH235398   6.335   4.190   8.160
 3982TIP3    H135399   6.286   4.150   8.232
 3982TIP3    H235400   6.272   4.251   8.120
 3983TIP3   OH235401   5.725   4.184   8.397
 3983TIP3    H135402   5.803   4.220   8.354
 3983TIP3    H235403   5.673   4.261   8.420
 3984TIP3   OH235404   6.213   4.474   8.297
 3984TIP3    H135405   6.158   4.432   8.231
 3984TIP3    H235406   6.296   4.490   8.253
 3985TIP3   OH235407   6.876   4.214   8.291
 3985TIP3    H135408   6.791   4.183   8.322
 3985TIP3    H235409   6.913   4.262   8.365
 3986TIP3   OH235410   6.982   4.400   8.469
 3986TIP3    H135411   7.063   4.407   8.520
 3986TIP3    H235412   6.957   4.490   8.450
 3987TIP3   OH235413   6.714   5.053   8.399
 3987TIP3    H135414   6.668   5.137   8.400
 3987TIP3    H235415   6.703   5.019   8.488
 3988TIP3   OH235416   7.452   4.429   8.409
 3988TIP3    H135417   7.406   4.420   8.326
 3988TIP3    H235418   7.501   4.511   8.400
 3989TIP3   OH235419   5.875   4.658   8.239
 3989TIP3    H135420   5.934   4.714   8.289
 3989TIP3    H235421   5.790   4.670   8.279
 3990TIP3   OH235422   7.077   5.104   8.320
 3990TIP3    H135423   7.063   5.141   8.407
 3990TIP3    H235424   6.992   5.066   8.296
 3991TIP3   OH235425   7.462   5.511   8.363
 3991TIP3    H135426   7.497   5.567   8.293
 3991TIP3    H235427   7.379   5.551   8.387
 3992TIP3   OH235428   6.459   5.182   8.130
 3992TIP3    H135429   6.441   5.104   8.077
 3992TIP3    H235430   6.417   5.164   8.214
 3993TIP3   OH235431   6.315   5.144   8.360
 3993TIP3    H135432   6.292   5.078   8.425
 3993TIP3    H235433   6.316   5.226   8.408
 3994TIP3   OH235434   6.001   4.799   8.434
 3994TIP3    H135435   5.950   4.770   8.510
 3994TIP3    H235436   6.064   4.862   8.470
 3995TIP3   OH235437   6.598   5.300   8.417
 3995TIP3    H135438   6.507   5.316   8.443
 3995TIP3    H235439   6.624   5.379   8.370
 3996TIP3   OH235440   6.343   5.389   8.481
 3996TIP3    H135441   6.335   5.470   8.430
 3996TIP3    H235442   6.319   5.415   8.570
 3997TIP3   OH235443   6.211   4.043   8.358
 3997TIP3    H135444   6.232   4.095   8.436
 3997TIP3    H235445   6.242   3.955   8.379
 3998TIP3   OH235446   6.041   5.134   8.235
 3998TIP3    H135447   6.112   5.191   8.264
 3998TIP3    H235448   6.085   5.058   8.197
 3999TIP3   OH235449   5.863   4.384   8.257
 3999TIP3    H135450   5.889   4.477   8.258
 3999TIP3    H235451   5.798   4.378   8.187
 4000TIP3   OH235452   6.655   5.377   8.117
 4000TIP3    H135453   6.590   5.308   8.130
 4000TIP3    H235454   6.732   5.331   8.082
 4001TIP3   OH235455   7.094   5.332   8.162
 4001TIP3    H135456   7.115   5.257   8.218
 4001TIP3    H235457   7.166   5.335   8.099
 4002TIP3   OH235458   6.189   4.922   8.131
 4002TIP3    H135459   6.211   4.870   8.208
 4002TIP3    H235460   6.271   4.930   8.083
 4003TIP3   OH235461   6.835   5.020   8.160
 4003TIP3    H135462   6.786   5.030   8.241
 4003TIP3    H235463   6.798   4.943   8.117
 4004TIP3   OH235464   6.289   4.745   8.325
 4004TIP3    H135465   6.222   4.680   8.342
 4004TIP3    H235466   6.352   4.701   8.268
 4005TIP3   OH235467   6.443   4.576   8.172
 4005TIP3    H135468   6.442   4.593   8.078
 4005TIP3    H235469   6.536   4.566   8.194
 4006TIP3   OH235470   7.373   4.799   8.194
 4006TIP3    H135471   7.349   4.755   8.112
 4006TIP3    H235472   7.345   4.890   8.182
 4007TIP3   OH235473   6.443   5.651   8.386
 4007TIP3    H135474   6.532   5.618   8.384
 4007TIP3    H235475   6.434   5.701   8.304
 4008TIP3   OH235476   5.786   5.078   8.315
 4008TIP3    H135477   5.877   5.102   8.299
 4008TIP3    H235478   5.762   5.023   8.241
 4009TIP3   OH235479   7.576   4.680   8.355
 4009TIP3    H135480   7.513   4.710   8.289
 4009TIP3    H235481   7.552   4.728   8.434
 4010TIP3   OH235482   7.321   4.376   8.174
 4010TIP3    H135483   7.278   4.411   8.096
 4010TIP3    H235484   7.300   4.283   8.173
 4011TIP3   OH235485   7.228   4.114   8.144
 4011TIP3    H135486   7.232   4.080   8.234
 4011TIP3    H235487   7.137   4.099   8.117
 4012TIP3   OH235488   7.439   3.983   8.358
 4012TIP3    H135489   7.463   3.930   8.282
 4012TIP3    H235490   7.500   4.057   8.355
 4013TIP3   OH235491   5.833   3.827   8.375
 4013TIP3    H135492   5.857   3.900   8.319
 4013TIP3    H235493   5.865   3.851   8.462
 4014TIP3   OH235494   5.979   4.007   8.213
 4014TIP3    H135495   6.024   3.942   8.159
 4014TIP3    H235496   6.045   4.034   8.277
 4015TIP3   OH235497   6.695   5.546   8.331
 4015TIP3    H135498   6.790   5.548   8.343
 4015TIP3    H235499   6.684   5.512   8.242
 4016TIP3   OH235500   5.952   5.533   8.189
 4016TIP3    H135501   5.911   5.578   8.263
 4016TIP3    H235502   6.011   5.469   8.229
 4017TIP3   OH235503   7.609   4.204   8.372
 4017TIP3    H135504   7.655   4.248   8.301
 4017TIP3    H235505   7.554   4.271   8.411
 4018TIP3   OH235506   7.617   5.063   8.312
 4018TIP3    H135507   7.710   5.086   8.305
 4018TIP3    H235508   7.597   5.018   8.230
 4019TIP3   OH235509   1.057   6.478   8.235
 4019TIP3    H135510   1.107   6.503   8.312
 4019TIP3    H235511   1.113   6.416   8.189
 4020TIP3   OH235512   1.272   6.530   8.410
 4020TIP3    H135513   1.299   6.585   8.483
 4020TIP3    H235514   1.324   6.560   8.336
 4021TIP3   OH235515   1.655   5.674   8.458
 4021TIP3    H135516   1.562   5.659   8.472
 4021TIP3    H235517   1.659   5.758   8.412
 4022TIP3   OH235518   1.806   7.141   8.237
 4022TIP3    H135519   1.807   7.221   8.290
 4022TIP3    H235520   1.881   7.091   8.268
 4023TIP3   OH235521   1.312   7.335   8.366
 4023TIP3    H135522   1.344   7.292   8.287
 4023TIP3    H235523   1.375   7.310   8.434
 4024TIP3   OH235524   1.452   6.639   8.235
 4024TIP3    H135525   1.414   6.643   8.147
 4024TIP3    H235526   1.546   6.643   8.221
 4025TIP3   OH235527   0.998   5.993   8.275
 4025TIP3    H135528   0.919   6.036   8.308
 4025TIP3    H235529   0.966   5.911   8.238
 4026TIP3   OH235530   0.671   6.038   8.175
 4026TIP3    H135531   0.617   6.010   8.249
 4026TIP3    H235532   0.619   6.106   8.132
 4027TIP3   OH235533   0.183   6.123   8.433
 4027TIP3    H135534   0.191   6.174   8.352
 4027TIP3    H235535   0.097   6.081   8.427
 4028TIP3   OH235536   0.587   6.320   8.316
 4028TIP3    H135537   0.529   6.294   8.245
 4028TIP3    H235538   0.663   6.358   8.271
 4029TIP3   OH235539   1.260   6.086   8.270
 4029TIP3    H135540   1.169   6.059   8.281
 4029TIP3    H235541   1.279   6.141   8.346
 4030TIP3   OH235542   1.325   6.268   8.473
 4030TIP3    H135543   1.418   6.280   8.492
 4030TIP3    H235544   1.294   6.354   8.445
 4031TIP3   OH235545   1.064   6.930   8.410
 4031TIP3    H135546   1.018   7.013   8.412
 4031TIP3    H235547   1.027   6.880   8.483
 4032TIP3   OH235548   1.821   6.288   8.432
 4032TIP3    H135549   1.785   6.274   8.344
 4032TIP3    H235550   1.857   6.377   8.429
 4033TIP3   OH235551   0.142   6.549   8.288
 4033TIP3    H135552   0.196   6.608   8.340
 4033TIP3    H235553   0.053   6.562   8.322
 4034TIP3   OH235554   1.428   6.980   8.314
 4034TIP3    H135555   1.395   6.992   8.402
 4034TIP3    H235556   1.354   6.945   8.264
 4035TIP3   OH235557   1.823   7.369   8.392
 4035TIP3    H135558   1.890   7.426   8.353
 4035TIP3    H235559   1.744   7.423   8.394
 4036TIP3   OH235560   0.806   7.048   8.135
 4036TIP3    H135561   0.806   6.964   8.089
 4036TIP3    H235562   0.766   7.029   8.220
 4037TIP3   OH235563   0.674   7.037   8.377
 4037TIP3    H135564   0.669   6.974   8.448
 4037TIP3    H235565   0.676   7.122   8.421
 4038TIP3   OH235566   0.292   6.737   8.424
 4038TIP3    H135567   0.245   6.789   8.489
 4038TIP3    H235568   0.358   6.797   8.389
 4039TIP3   OH235569   0.944   7.176   8.408
 4039TIP3    H135570   0.859   7.212   8.434
 4039TIP3    H235571   0.957   7.210   8.319
 4040TIP3   OH235572   0.704   7.296   8.470
 4040TIP3    H135573   0.703   7.378   8.421
 4040TIP3    H235574   0.678   7.320   8.559
 4041TIP3   OH235575   0.505   5.982   8.398
 4041TIP3    H135576   0.470   6.070   8.412
 4041TIP3    H235577   0.583   5.978   8.452
 4042TIP3   OH235578   0.426   6.956   8.294
 4042TIP3    H135579   0.500   7.006   8.329
 4042TIP3    H235580   0.463   6.905   8.223
 4043TIP3   OH235581   0.158   6.285   8.215
 4043TIP3    H135582   0.156   6.373   8.252
 4043TIP3    H235583   0.092   6.286   8.146
 4044TIP3   OH235584   0.999   7.240   8.141
 4044TIP3    H135585   0.932   7.172   8.132
 4044TIP3    H235586   1.078   7.201   8.103
 4045TIP3   OH235587   1.447   7.213   8.161
 4045TIP3    H135588   1.469   7.135   8.212
 4045TIP3    H235589   1.520   7.222   8.099
 4046TIP3   OH235590   0.553   6.788   8.123
 4046TIP3    H135591   0.567   6.730   8.197
 4046TIP3    H235592   0.639   6.794   8.081
 4047TIP3   OH235593   1.200   6.911   8.174
 4047TIP3    H135594   1.145   6.912   8.253
 4047TIP3    H235595   1.171   6.833   8.126
 4048TIP3   OH235596   0.620   6.627   8.337
 4048TIP3    H135597   0.572   6.559   8.384
 4048TIP3    H235598   0.686   6.580   8.288
 4049TIP3   OH235599   0.787   6.466   8.192
 4049TIP3    H135600   0.777   6.485   8.099
 4049TIP3    H235601   0.881   6.467   8.207
 4050TIP3   OH235602   1.725   6.669   8.172
 4050TIP3    H135603   1.709   6.641   8.082
 4050TIP3    H235604   1.710   6.763   8.171
 4051TIP3   OH235605   0.786   7.560   8.379
 4051TIP3    H135606   0.874   7.532   8.354
 4051TIP3    H235607   0.771   7.638   8.326
 4052TIP3   OH235608   0.167   6.979   8.226
 4052TIP3    H135609   0.257   6.982   8.258
 4052TIP3    H235610   0.165   6.900   8.171
 4053TIP3   OH235611   1.872   6.553   8.373
 4053TIP3    H135612   1.819   6.581   8.298
 4053TIP3    H235613   1.846   6.613   8.444
 4054TIP3   OH235614   1.720   6.270   8.178
 4054TIP3    H135615   1.695   6.319   8.100
 4054TIP3    H235616   1.668   6.190   8.173
 4055TIP3   OH235617   1.578   6.036   8.176
 4055TIP3    H135618   1.620   5.983   8.244
 4055TIP3    H235619   1.485   6.034   8.200
 4056TIP3   OH235620   1.764   5.879   8.313
 4056TIP3    H135621   1.802   5.838   8.235
 4056TIP3    H235622   1.833   5.938   8.344
 4057TIP3   OH235623   0.209   5.683   8.388
 4057TIP3    H135624   0.219   5.752   8.323
 4057TIP3    H235625   0.210   5.729   8.472
 4058TIP3   OH235626   0.333   5.865   8.214
 4058TIP3    H135627   0.385   5.805   8.161
 4058TIP3    H235628   0.395   5.898   8.280
 4059TIP3   OH235629   1.035   7.461   8.309
 4059TIP3    H135630   1.126   7.450   8.337
 4059TIP3    H235631   1.024   7.396   8.239
 4060TIP3   OH235632   0.368   7.377   8.229
 4060TIP3    H135633   0.367   7.376   8.325
 4060TIP3    H235634   0.442   7.322   8.205
 4061TIP3   OH235635   2.957   6.394   8.284
 4061TIP3    H135636   3.021   6.443   8.336
 4061TIP3    H235637   3.011   6.345   8.221
 4062TIP3   OH235638   3.161   6.524   8.417
 4062TIP3    H135639   3.178   6.584   8.490
 4062TIP3    H235640   3.225   6.549   8.350
 4063TIP3   OH235641   3.525   5.667   8.427
 4063TIP3    H135642   3.432   5.680   8.405
 4063TIP3    H235643   3.567   5.749   8.400
 4064TIP3   OH235644   3.682   7.139   8.246
 4064TIP3    H135645   3.696   7.220   8.294
 4064TIP3    H235646   3.759   7.086   8.265
 4065TIP3   OH235647   3.187   7.371   8.341
 4065TIP3    H135648   3.233   7.313   8.280
 4065TIP3    H235649   3.246   7.378   8.416
 4066TIP3   OH235650   3.360   6.622   8.259
 4066TIP3    H135651   3.319   6.624   8.173
 4066TIP3    H235652   3.453   6.611   8.242
 4067TIP3   OH235653   2.931   6.021   8.321
 4067TIP3    H135654   2.882   6.007   8.402
 4067TIP3    H235655   2.901   5.951   8.263
 4068TIP3   OH235656   2.549   6.053   8.173
 4068TIP3    H135657   2.504   6.023   8.252
 4068TIP3    H235658   2.487   6.113   8.132
 4069TIP3   OH235659   1.970   6.046   8.406
 4069TIP3    H135660   2.032   6.097   8.354
 4069TIP3    H235661   1.911   6.112   8.443
 4070TIP3   OH235662   2.450   6.359   8.277
 4070TIP3    H135663   2.411   6.316   8.201
 4070TIP3    H235664   2.541   6.373   8.252
 4071TIP3   OH235665   3.195   6.091   8.285
 4071TIP3    H135666   3.103   6.069   8.297
 4071TIP3    H235667   3.217   6.144   8.362
 4072TIP3   OH235668   3.223   6.266   0.002
 4072TIP3    H135669   3.311   6.273   0.038
 4072TIP3    H235670   3.205   6.353  -0.034
 4073TIP3   OH235671   2.931   6.910   8.391
 4073TIP3    H135672   2.889   6.995   8.400
 4073TIP3    H235673   2.931   6.873   8.480
 4074TIP3   OH235674   3.696   6.304   8.429
 4074TIP3    H135675   3.645   6.298   8.348
 4074TIP3    H235676   3.745   6.386   8.421
 4075TIP3   OH235677   2.120   6.531   8.259
 4075TIP3    H135678   2.170   6.599   8.304
 4075TIP3    H235679   2.032   6.535   8.297
 4076TIP3   OH235680   3.303   6.990   8.307
 4076TIP3    H135681   3.276   6.976   8.398
 4076TIP3    H235682   3.227   6.965   8.255
 4077TIP3   OH235683   3.716   7.379   8.388
 4077TIP3    H135684   3.781   7.439   8.351
 4077TIP3    H235685   3.633   7.426   8.378
 4078TIP3   OH235686   2.677   7.048   8.141
 4078TIP3    H135687   2.676   6.966   8.093
 4078TIP3    H235688   2.637   7.028   8.226
 4079TIP3   OH235689   2.531   7.040   8.384
 4079TIP3    H135690   2.535   6.981   8.459
 4079TIP3    H235691   2.542   7.127   8.421
 4080TIP3   OH235692   2.222   6.734   8.412
 4080TIP3    H135693   2.292   6.737   8.477
 4080TIP3    H235694   2.226   6.819   8.370
 4081TIP3   OH235695   2.822   7.163   8.406
 4081TIP3    H135696   2.737   7.201   8.431
 4081TIP3    H235697   2.839   7.198   8.319
 4082TIP3   OH235698   2.586   7.295   8.476
 4082TIP3    H135699   2.594   7.374   8.423
 4082TIP3    H235700   2.597   7.325   8.566
 4083TIP3   OH235701   2.449   5.904   8.396
 4083TIP3    H135702   2.490   5.952   8.468
 4083TIP3    H235703   2.513   5.836   8.373
 4084TIP3   OH235704   2.281   6.976   8.282
 4084TIP3    H135705   2.355   7.021   8.322
 4084TIP3    H235706   2.320   6.920   8.216
 4085TIP3   OH235707   2.095   6.254   8.274
 4085TIP3    H135708   2.129   6.344   8.278
 4085TIP3    H235709   2.037   6.254   8.198
 4086TIP3   OH235710   2.870   7.244   8.145
 4086TIP3    H135711   2.810   7.170   8.131
 4086TIP3    H235712   2.954   7.214   8.109
 4087TIP3   OH235713   3.341   7.227   8.164
 4087TIP3    H135714   3.356   7.148   8.216
 4087TIP3    H235715   3.416   7.231   8.104
 4088TIP3   OH235716   2.411   6.790   8.133
 4088TIP3    H135717   2.437   6.734   8.207
 4088TIP3    H235718   2.491   6.803   8.083
 4089TIP3   OH235719   3.078   6.939   8.157
 4089TIP3    H135720   3.017   6.909   8.224
 4089TIP3    H235721   3.059   6.884   8.081
 4090TIP3   OH235722   2.517   6.624   8.333
 4090TIP3    H135723   2.463   6.545   8.329
 4090TIP3    H235724   2.600   6.598   8.294
 4091TIP3   OH235725   2.702   6.455   8.213
 4091TIP3    H135726   2.717   6.489   8.125
 4091TIP3    H235727   2.789   6.429   8.244
 4092TIP3   OH235728   3.613   6.665   8.141
 4092TIP3    H135729   3.589   6.640   8.052
 4092TIP3    H235730   3.591   6.758   8.147
 4093TIP3   OH235731   2.658   7.548   8.375
 4093TIP3    H135732   2.749   7.523   8.357
 4093TIP3    H235733   2.638   7.615   8.310
 4094TIP3   OH235734   2.012   6.964   8.295
 4094TIP3    H135735   2.106   6.978   8.292
 4094TIP3    H235736   1.994   6.902   8.224
 4095TIP3   OH235737   3.754   6.565   8.352
 4095TIP3    H135738   3.706   6.583   8.271
 4095TIP3    H235739   3.712   6.623   8.417
 4096TIP3   OH235740   3.553   6.304   8.200
 4096TIP3    H135741   3.588   6.334   8.116
 4096TIP3    H235742   3.519   6.217   8.182
 4097TIP3   OH235743   3.466   6.040   8.186
 4097TIP3    H135744   3.521   5.987   8.244
 4097TIP3    H235745   3.382   6.045   8.232
 4098TIP3   OH235746   3.650   5.881   8.314
 4098TIP3    H135747   3.689   5.829   8.244
 4098TIP3    H235748   3.720   5.938   8.344
 4099TIP3   OH235749   2.039   5.776   8.389
 4099TIP3    H135750   2.106   5.776   8.321
 4099TIP3    H235751   2.025   5.869   8.409
 4100TIP3   OH235752   2.237   5.882   8.221
 4100TIP3    H135753   2.279   5.822   8.159
 4100TIP3    H235754   2.304   5.897   8.288
 4101TIP3   OH235755   2.911   7.457   8.319
 4101TIP3    H135756   3.003   7.447   8.342
 4101TIP3    H235757   2.898   7.394   8.247
 4102TIP3   OH235758   2.230   7.371   8.160
 4102TIP3    H135759   2.196   7.365   8.250
 4102TIP3    H235760   2.311   7.319   8.163
 4103TIP3   OH235761   4.827   6.469   8.236
 4103TIP3    H135762   4.877   6.518   8.301
 4103TIP3    H235763   4.891   6.411   8.194
 4104TIP3   OH235764   4.983   6.642   8.392
 4104TIP3    H135765   5.022   6.612   8.474
 4104TIP3    H235766   5.058   6.661   8.335
 4105TIP3   OH235767   5.398   5.686   8.419
 4105TIP3    H135768   5.310   5.724   8.417
 4105TIP3    H235769   5.456   5.760   8.400
 4106TIP3   OH235770   5.544   7.106   8.330
 4106TIP3    H135771   5.571   7.197   8.341
 4106TIP3    H235772   5.626   7.057   8.329
 4107TIP3   OH235773   5.067   7.367   8.324
 4107TIP3    H135774   5.110   7.299   8.272
 4107TIP3    H235775   5.136   7.401   8.381
 4108TIP3   OH235776   5.208   6.704   8.242
 4108TIP3    H135777   5.180   6.674   8.156
 4108TIP3    H235778   5.303   6.700   8.240
 4109TIP3   OH235779   4.769   6.032   8.306
 4109TIP3    H135780   4.753   6.016   8.399
 4109TIP3    H235781   4.797   5.947   8.271
 4110TIP3   OH235782   4.421   6.071   8.155
 4110TIP3    H135783   4.380   6.037   8.235
 4110TIP3    H235784   4.358   6.135   8.122
 4111TIP3   OH235785   3.835   6.061   8.396
 4111TIP3    H135786   3.928   6.081   8.381
 4111TIP3    H235787   3.797   6.144   8.424
 4112TIP3   OH235788   4.324   6.360   8.321
 4112TIP3    H135789   4.267   6.315   8.259
 4112TIP3    H235790   4.408   6.367   8.275
 4113TIP3   OH235791   5.015   6.160   8.312
 4113TIP3    H135792   4.926   6.127   8.302
 4113TIP3    H235793   5.067   6.082   8.333
 4114TIP3   OH235794   5.082   6.333   0.018
 4114TIP3    H135795   5.172   6.306   0.039
 4114TIP3    H235796   5.058   6.279  -0.058
 4115TIP3   OH235797   4.862   6.959   8.483
 4115TIP3    H135798   4.781   7.001   8.455
 4115TIP3    H235799   4.848   6.865   8.469
 4116TIP3   OH235800   5.591   6.309   8.412
 4116TIP3    H135801   5.528   6.290   8.342
 4116TIP3    H235802   5.651   6.373   8.374
 4117TIP3   OH235803   4.004   6.559   8.244
 4117TIP3    H135804   4.053   6.624   8.294
 4117TIP3    H235805   3.916   6.560   8.283
 4118TIP3   OH235806   5.106   6.952   8.309
 4118TIP3    H135807   5.159   6.875   8.286
 4118TIP3    H235808   5.026   6.941   8.258
 4119TIP3   OH235809   5.591   7.388   8.343
 4119TIP3    H135810   5.679   7.425   8.344
 4119TIP3    H235811   5.559   7.404   8.254
 4120TIP3   OH235812   4.589   7.021   8.155
 4120TIP3    H135813   4.568   6.949   8.096
 4120TIP3    H235814   4.531   7.009   8.230
 4121TIP3   OH235815   4.413   7.025   8.369
 4121TIP3    H135816   4.400   6.957   8.436
 4121TIP3    H235817   4.419   7.107   8.418
 4122TIP3   OH235818   4.091   6.724   8.447
 4122TIP3    H135819   4.057   6.664   8.514
 4122TIP3    H235820   4.177   6.750   8.480
 4123TIP3   OH235821   4.693   7.180   8.416
 4123TIP3    H135822   4.607   7.213   8.441
 4123TIP3    H235823   4.702   7.203   8.324
 4124TIP3   OH235824   4.437   7.284   8.465
 4124TIP3    H135825   4.427   7.349   8.396
 4124TIP3    H235826   4.385   7.318   8.538
 4125TIP3   OH235827   4.318   5.928   8.367
 4125TIP3    H135828   4.342   5.966   8.452
 4125TIP3    H235829   4.389   5.866   8.348
 4126TIP3   OH235830   4.156   7.009   8.236
 4126TIP3    H135831   4.231   7.048   8.282
 4126TIP3    H235832   4.192   6.929   8.196
 4127TIP3   OH235833   4.004   6.286   8.294
 4127TIP3    H135834   4.019   6.379   8.281
 4127TIP3    H235835   3.974   6.254   8.209
 4128TIP3   OH235836   4.759   7.235   8.144
 4128TIP3    H135837   4.699   7.161   8.135
 4128TIP3    H235838   4.843   7.202   8.111
 4129TIP3   OH235839   5.217   7.205   8.160
 4129TIP3    H135840   5.249   7.116   8.177
 4129TIP3    H235841   5.270   7.236   8.087
 4130TIP3   OH235842   4.296   6.794   8.133
 4130TIP3    H135843   4.314   6.736   8.207
 4130TIP3    H235844   4.378   6.797   8.084
 4131TIP3   OH235845   4.876   6.926   8.149
 4131TIP3    H135846   4.782   6.939   8.163
 4131TIP3    H235847   4.883   6.837   8.114
 4132TIP3   OH235848   4.390   6.626   8.333
 4132TIP3    H135849   4.339   6.548   8.351
 4132TIP3    H235850   4.467   6.595   8.284
 4133TIP3   OH235851   4.557   6.463   8.188
 4133TIP3    H135852   4.553   6.478   8.094
 4133TIP3    H235853   4.650   6.451   8.207
 4134TIP3   OH235854   5.478   6.727   8.192
 4134TIP3    H135855   5.471   6.687   8.105
 4134TIP3    H235856   5.565   6.701   8.224
 4135TIP3   OH235857   4.537   7.553   8.370
 4135TIP3    H135858   4.623   7.532   8.334
 4135TIP3    H235859   4.496   7.609   8.304
 4136TIP3   OH235860   3.891   6.960   8.287
 4136TIP3    H135861   3.985   6.978   8.285
 4136TIP3    H235862   3.877   6.897   8.216
 4137TIP3   OH235863   5.587   6.615   8.466
 4137TIP3    H135864   5.550   6.569   8.391
 4137TIP3    H235865   5.680   6.623   8.446
 4138TIP3   OH235866   5.416   6.272   8.208
 4138TIP3    H135867   5.382   6.309   8.126
 4138TIP3    H235868   5.397   6.178   8.202
 4139TIP3   OH235869   5.378   5.999   8.185
 4139TIP3    H135870   5.440   5.961   8.248
 4139TIP3    H235871   5.292   5.972   8.218
 4140TIP3   OH235872   5.576   5.876   8.337
 4140TIP3    H135873   5.603   5.833   8.255
 4140TIP3    H235874   5.643   5.943   8.352
 4141TIP3   OH235875   3.921   5.729   8.386
 4141TIP3    H135876   3.967   5.793   8.331
 4141TIP3    H235877   3.980   5.714   8.460
 4142TIP3   OH235878   4.093   5.891   8.222
 4142TIP3    H135879   4.135   5.831   8.160
 4142TIP3    H235880   4.161   5.913   8.285
 4143TIP3   OH235881   4.789   7.484   8.267
 4143TIP3    H135882   4.881   7.475   8.292
 4143TIP3    H235883   4.770   7.405   8.217
 4144TIP3   OH235884   4.091   7.376   8.172
 4144TIP3    H135885   4.053   7.420   8.248
 4144TIP3    H235886   4.160   7.320   8.208
 4145TIP3   OH235887   6.720   6.476   8.242
 4145TIP3    H135888   6.771   6.505   8.317
 4145TIP3    H235889   6.775   6.412   8.198
 4146TIP3   OH235890   6.920   6.555   8.421
 4146TIP3    H135891   6.951   6.603   8.497
 4146TIP3    H235892   6.970   6.591   8.348
 4147TIP3   OH235893   7.250   5.668   8.429
 4147TIP3    H135894   7.168   5.693   8.472
 4147TIP3    H235895   7.297   5.750   8.417
 4148TIP3   OH235896   7.424   7.137   8.237
 4148TIP3    H135897   7.430   7.220   8.284
 4148TIP3    H235898   7.500   7.087   8.268
 4149TIP3   OH235899   6.950   7.372   8.360
 4149TIP3    H135900   6.990   7.303   8.306
 4149TIP3    H235901   7.023   7.410   8.408
 4150TIP3   OH235902   7.087   6.660   8.239
 4150TIP3    H135903   7.057   6.651   8.148
 4150TIP3    H235904   7.182   6.654   8.233
 4151TIP3   OH235905   6.624   5.997   8.333
 4151TIP3    H135906   6.547   6.053   8.322
 4151TIP3    H235907   6.604   5.918   8.283
 4152TIP3   OH235908   6.344   6.054   8.177
 4152TIP3    H135909   6.292   6.014   8.246
 4152TIP3    H235910   6.284   6.114   8.133
 4153TIP3   OH235911   5.747   6.073   8.408
 4153TIP3    H135912   5.817   6.110   8.353
 4153TIP3    H235913   5.690   6.147   8.427
 4154TIP3   OH235914   6.226   6.341   8.307
 4154TIP3    H135915   6.170   6.295   8.244
 4154TIP3    H235916   6.304   6.364   8.258
 4155TIP3   OH235917   6.890   6.093   8.293
 4155TIP3    H135918   6.804   6.066   8.324
 4155TIP3    H235919   6.925   6.148   8.363
 4156TIP3   OH235920   6.979   6.290   8.473
 4156TIP3    H135921   7.065   6.293   8.514
 4156TIP3    H235922   6.961   6.381   8.449
 4157TIP3   OH235923   6.710   6.935   8.412
 4157TIP3    H135924   6.656   7.014   8.419
 4157TIP3    H235925   6.702   6.892   8.497
 4158TIP3   OH235926   7.459   6.306   8.404
 4158TIP3    H135927   7.405   6.302   8.325
 4158TIP3    H235928   7.508   6.387   8.396
 4159TIP3   OH235929   5.929   6.471   8.418
 4159TIP3    H135930   5.951   6.555   8.458
 4159TIP3    H235931   5.872   6.494   8.345
 4160TIP3   OH235932   7.069   6.975   8.329
 4160TIP3    H135933   7.043   6.971   8.421
 4160TIP3    H235934   6.994   6.939   8.281
 4161TIP3   OH235935   7.442   7.369   8.391
 4161TIP3    H135936   7.481   7.421   8.321
 4161TIP3    H235937   7.355   7.407   8.403
 4162TIP3   OH235938   6.455   7.033   8.142
 4162TIP3    H135939   6.453   6.951   8.092
 4162TIP3    H235940   6.412   7.013   8.224
 4163TIP3   OH235941   6.307   7.036   8.379
 4163TIP3    H135942   6.305   6.963   8.442
 4163TIP3    H235943   6.325   7.113   8.433
 4164TIP3   OH235944   5.967   6.737   8.481
 4164TIP3    H135945   6.020   6.757   8.558
 4164TIP3    H235946   6.000   6.795   8.413
 4165TIP3   OH235947   6.577   7.179   8.409
 4165TIP3    H135948   6.497   7.230   8.427
 4165TIP3    H235949   6.598   7.200   8.318
 4166TIP3   OH235950   6.347   7.333   8.451
 4166TIP3    H135951   6.345   7.399   8.381
 4166TIP3    H235952   6.370   7.383   8.530
 4167TIP3   OH235953   6.210   5.911   8.371
 4167TIP3    H135954   6.234   5.965   8.446
 4167TIP3    H235955   6.246   5.825   8.392
 4168TIP3   OH235956   6.055   6.978   8.282
 4168TIP3    H135957   6.135   7.018   8.316
 4168TIP3    H235958   6.086   6.917   8.215
 4169TIP3   OH235959   5.904   6.241   8.253
 4169TIP3    H135960   5.922   6.324   8.298
 4169TIP3    H235961   5.834   6.262   8.191
 4170TIP3   OH235962   6.641   7.233   8.142
 4170TIP3    H135963   6.580   7.160   8.131
 4170TIP3    H235964   6.724   7.199   8.108
 4171TIP3   OH235965   7.087   7.210   8.183
 4171TIP3    H135966   7.104   7.132   8.237
 4171TIP3    H235967   7.159   7.211   8.120
 4172TIP3   OH235968   6.187   6.796   8.126
 4172TIP3    H135969   6.200   6.730   8.195
 4172TIP3    H235970   6.270   6.797   8.079
 4173TIP3   OH235971   6.842   6.913   8.175
 4173TIP3    H135972   6.788   6.914   8.254
 4173TIP3    H235973   6.818   6.832   8.130
 4174TIP3   OH235974   6.254   6.619   8.330
 4174TIP3    H135975   6.200   6.542   8.346
 4174TIP3    H235976   6.332   6.585   8.285
 4175TIP3   OH235977   6.448   6.479   8.197
 4175TIP3    H135978   6.441   6.494   8.103
 4175TIP3    H235979   6.543   6.473   8.213
 4176TIP3   OH235980   7.371   6.664   8.196
 4176TIP3    H135981   7.351   6.621   8.112
 4176TIP3    H235982   7.346   6.755   8.183
 4177TIP3   OH235983   6.384   7.594   8.316
 4177TIP3    H135984   6.471   7.555   8.311
 4177TIP3    H235985   6.390   7.675   8.265
 4178TIP3   OH235986   5.785   6.973   8.318
 4178TIP3    H135987   5.880   6.982   8.314
 4178TIP3    H235988   5.763   6.916   8.244
 4179TIP3   OH235989   7.575   6.560   8.360
 4179TIP3    H135990   7.511   6.586   8.294
 4179TIP3    H235991   7.545   6.602   8.440
 4180TIP3   OH235992   7.307   6.272   8.181
 4180TIP3    H135993   7.262   6.302   8.101
 4180TIP3    H235994   7.291   6.178   8.182
 4181TIP3   OH235995   7.239   6.005   8.177
 4181TIP3    H135996   7.257   5.966   8.263
 4181TIP3    H235997   7.146   5.989   8.163
 4182TIP3   OH235998   7.443   5.864   8.365
 4182TIP3    H135999   7.462   5.806   8.292
 4182TIP3    H236000   7.505   5.936   8.357
 4183TIP3   OH236001   5.833   5.707   8.378
 4183TIP3    H136002   5.859   5.776   8.317
 4183TIP3    H236003   5.858   5.741   8.464
 4184TIP3   OH236004   5.983   5.880   8.216
 4184TIP3    H136005   6.029   5.821   8.157
 4184TIP3    H236006   6.049   5.909   8.279
 4185TIP3   OH236007   6.631   7.468   8.297
 4185TIP3    H136008   6.719   7.472   8.335
 4185TIP3    H236009   6.636   7.396   8.234
 4186TIP3   OH236010   6.071   7.402   8.223
 4186TIP3    H136011   6.001   7.338   8.230
 4186TIP3    H236012   6.149   7.351   8.201
 4187TIP3   OH236013   7.612   6.083   8.339
 4187TIP3    H136014   7.609   6.107   8.246
 4187TIP3    H236015   7.565   6.154   8.383
 4188TIP3   OH236016   7.615   6.943   8.308
 4188TIP3    H136017   7.706   6.968   8.295
 4188TIP3    H236018   7.593   6.891   8.231
 4189TIP3   OH236019   1.606   7.521   8.461
 4189TIP3    H136020   1.532   7.507   8.521
 4189TIP3    H236021   1.607   7.616   8.447
 4190TIP3   OH236022   0.108   7.570   8.449
 4190TIP3    H136023   0.156   7.535   8.375
 4190TIP3    H236024   0.101   7.664   8.431
 4191TIP3   OH236025   3.472   7.505   8.445
 4191TIP3    H136026   3.448   7.496   8.537
 4191TIP3    H236027   3.475   7.600   8.431
 4192TIP3   OH236028   2.032   7.527   8.309
 4192TIP3    H136029   2.066   7.542   8.220
 4192TIP3    H236030   2.041   7.612   8.352
 4193TIP3   OH236031   5.338   7.531   8.413
 4193TIP3    H136032   5.349   7.527   8.507
 4193TIP3    H236033   5.415   7.486   8.377
 4194TIP3   OH236034   3.916   7.559   8.314
 4194TIP3    H136035   3.925   7.604   8.230
 4194TIP3    H236036   3.926   7.628   8.379
 4195TIP3   OH236037   7.206   7.508   8.438
 4195TIP3    H136038   7.218   7.505   8.533
 4195TIP3    H236039   7.217   7.600   8.415
 4196TIP3   OH236040   5.802   7.563   8.297
 4196TIP3    H136041   5.741   7.579   8.225
 4196TIP3    H236042   5.799   7.645   8.348
 4197TIP3   OH236043   1.213   1.009   0.664
 4197TIP3    H136044   1.202   1.104   0.663
 4197TIP3    H236045   1.140   0.975   0.613
 4198TIP3   OH236046   1.064   0.937   1.031
 4198TIP3    H136047   1.072   0.895   1.117
 4198TIP3    H236048   1.018   0.873   0.977
 4199TIP3   OH236049   0.289   0.868   1.205
 4199TIP3    H136050   0.298   0.784   1.251
 4199TIP3    H236051   0.333   0.931   1.262
 4200TIP3   OH236052   1.426   1.241   0.884
 4200TIP3    H136053   1.391   1.156   0.912
 4200TIP3    H236054   1.443   1.288   0.966
 4201TIP3   OH236055   0.400   1.334   1.003
 4201TIP3    H136056   0.386   1.244   0.975
 4201TIP3    H236057   0.470   1.328   1.069
 4202TIP3   OH236058   0.108   0.686   0.531
 4202TIP3    H136059   0.126   0.766   0.581
 4202TIP3    H236060   0.015   0.670   0.545
 4203TIP3   OH236061   0.185   0.887   0.712
 4203TIP3    H136062   0.208   0.829   0.784
 4203TIP3    H236063   0.252   0.955   0.713
 4204TIP3   OH236064   1.155   1.779   0.922
 4204TIP3    H136065   1.191   1.696   0.890
 4204TIP3    H236066   1.115   1.756   1.006
 4205TIP3   OH236067   0.909   1.185   1.067
 4205TIP3    H136068   0.947   1.105   1.031
 4205TIP3    H236069   0.977   1.219   1.126
 4206TIP3   OH236070   1.811   0.331   1.137
 4206TIP3    H136071   1.802   0.396   1.206
 4206TIP3    H236072   1.879   0.367   1.079
 4207TIP3   OH236073   1.247   0.617   1.107
 4207TIP3    H136074   1.259   0.530   1.145
 4207TIP3    H236075   1.216   0.600   1.018
 4208TIP3   OH236076   0.585   0.417   0.811
 4208TIP3    H136077   0.598   0.501   0.769
 4208TIP3    H236078   0.543   0.362   0.745
 4209TIP3   OH236079   1.354   0.474   0.677
 4209TIP3    H136080   1.403   0.440   0.752
 4209TIP3    H236081   1.418   0.525   0.627
 4210TIP3   OH236082   0.274   0.687   0.877
 4210TIP3    H136083   0.358   0.696   0.923
 4210TIP3    H236084   0.296   0.640   0.797
 4211TIP3   OH236085   0.715   0.819   0.827
 4211TIP3    H136086   0.795   0.781   0.862
 4211TIP3    H236087   0.679   0.752   0.769
 4212TIP3   OH236088   1.798   0.480   1.370
 4212TIP3    H136089   1.751   0.561   1.352
 4212TIP3    H236090   1.738   0.429   1.424
 4213TIP3   OH236091   0.430   0.310   1.255
 4213TIP3    H136092   0.374   0.351   1.189
 4213TIP3    H236093   0.371   0.292   1.329
 4214TIP3   OH236094   1.181   1.269   0.579
 4214TIP3    H136095   1.159   1.264   0.486
 4214TIP3    H236096   1.136   1.347   0.610
 4215TIP3   OH236097   0.688   1.084   1.206
 4215TIP3    H136098   0.630   1.151   1.241
 4215TIP3    H236099   0.758   1.134   1.163
 4216TIP3   OH236100   1.503   0.399   0.896
 4216TIP3    H136101   1.429   0.374   0.952
 4216TIP3    H236102   1.553   0.462   0.948
 4217TIP3   OH236103   0.413   0.489   1.025
 4217TIP3    H136104   0.473   0.531   1.087
 4217TIP3    H236105   0.470   0.447   0.960
 4218TIP3   OH236106   0.533   1.313   1.283
 4218TIP3    H136107   0.544   1.407   1.292
 4218TIP3    H236108   0.446   1.296   1.319
 4219TIP3   OH236109   0.156   1.238   0.450
 4219TIP3    H136110   0.062   1.247   0.434
 4219TIP3    H236111   0.182   1.324   0.485
 4220TIP3   OH236112   1.486   1.479   1.023
 4220TIP3    H136113   1.405   1.473   1.074
 4220TIP3    H236114   1.523   1.564   1.047
 4221TIP3   OH236115   1.557   0.221   1.201
 4221TIP3    H136116   1.503   0.192   1.127
 4221TIP3    H236117   1.639   0.249   1.161
 4222TIP3   OH236118   0.837   0.103   0.944
 4222TIP3    H136119   0.837   0.010   0.966
 4222TIP3    H236120   0.766   0.141   0.997
 4223TIP3   OH236121   1.289   1.598   0.740
 4223TIP3    H136122   1.207   1.564   0.703
 4223TIP3    H236123   1.310   1.674   0.686
 4224TIP3   OH236124   1.487   1.320   0.626
 4224TIP3    H136125   1.475   1.276   0.541
 4224TIP3    H236126   1.452   1.258   0.690
 4225TIP3   OH236127   1.637   1.236   1.460
 4225TIP3    H136128   1.604   1.168   1.402
 4225TIP3    H236129   1.624   1.317   1.411
 4226TIP3   OH236130   1.054   0.937   0.447
 4226TIP3    H136131   0.984   0.998   0.429
 4226TIP3    H236132   1.108   0.937   0.368
 4227TIP3   OH236133   1.071   0.772   0.128
 4227TIP3    H136134   1.137   0.810   0.186
 4227TIP3    H236135   1.116   0.701   0.082
 4228TIP3   OH236136   1.808   0.910   1.281
 4228TIP3    H136137   1.725   0.958   1.291
 4228TIP3    H236138   1.839   0.935   1.194
 4229TIP3   OH236139   1.425   0.946   0.510
 4229TIP3    H136140   1.353   0.966   0.569
 4229TIP3    H236141   1.489   0.899   0.564
 4230TIP3   OH236142   1.395   0.781   1.479
 4230TIP3    H136143   1.443   0.846   1.530
 4230TIP3    H236144   1.308   0.818   1.468
 4231TIP3   OH236145   0.540   0.998   0.706
 4231TIP3    H136146   0.512   0.958   0.623
 4231TIP3    H236147   0.604   0.937   0.742
 4232TIP3   OH236148   0.712   1.374   0.980
 4232TIP3    H136149   0.693   1.359   0.887
 4232TIP3    H236150   0.776   1.306   1.003
 4233TIP3   OH236151   0.572   0.881   1.058
 4233TIP3    H136152   0.633   0.870   0.985
 4233TIP3    H236153   0.614   0.947   1.114
 4234TIP3   OH236154   1.269   1.454   1.172
 4234TIP3    H136155   1.239   1.524   1.230
 4234TIP3    H236156   1.215   1.379   1.196
 4235TIP3   OH236157   0.668   1.340   1.538
 4235TIP3    H136158   0.606   1.395   1.585
 4235TIP3    H236159   0.622   1.315   1.458
 4236TIP3   OH236160   1.287   0.870   0.283
 4236TIP3    H136161   1.333   0.893   0.363
 4236TIP3    H236162   1.329   0.921   0.214
 4237TIP3   OH236163   0.401   0.988   1.435
 4237TIP3    H136164   0.416   1.054   1.503
 4237TIP3    H236165   0.326   0.938   1.467
 4238TIP3   OH236166   1.057   1.522   0.620
 4238TIP3    H136167   0.975   1.539   0.666
 4238TIP3    H236168   1.035   1.527   0.528
 4239TIP3   OH236169   0.491   1.530   1.633
 4239TIP3    H136170   0.482   1.561   1.542
 4239TIP3    H236171   0.401   1.511   1.660
 4240TIP3   OH236172   1.708   0.107   0.310
 4240TIP3    H136173   1.622   0.130   0.343
 4240TIP3    H236174   1.727   0.174   0.244
 4241TIP3   OH236175   0.445   0.900   0.463
 4241TIP3    H136176   0.407   0.971   0.411
 4241TIP3    H236177   0.386   0.826   0.449
 4242TIP3   OH236178   1.757   1.457   0.113
 4242TIP3    H136179   1.780   1.550   0.120
 4242TIP3    H236180   1.841   1.413   0.102
 4243TIP3   OH236181   0.128   1.116   1.362
 4243TIP3    H136182   0.034   1.131   1.362
 4243TIP3    H236183   0.138   1.031   1.405
 4244TIP3   OH236184   0.141   1.463   1.026
 4244TIP3    H136185   0.215   1.403   1.011
 4244TIP3    H236186   0.157   1.499   1.113
 4245TIP3   OH236187   1.881   1.463   1.650
 4245TIP3    H136188   1.857   1.370   1.653
 4245TIP3    H236189   1.798   1.509   1.665
 4246TIP3   OH236190   0.915   1.458   1.509
 4246TIP3    H136191   0.922   1.536   1.564
 4246TIP3    H236192   0.830   1.420   1.532
 4247TIP3   OH236193   1.021   1.853   0.433
 4247TIP3    H136194   0.942   1.849   0.379
 4247TIP3    H236195   0.998   1.912   0.505
 4248TIP3   OH236196   0.381   1.665   0.672
 4248TIP3    H136197   0.394   1.642   0.764
 4248TIP3    H236198   0.344   1.754   0.675
 4249TIP3   OH236199   1.368   1.740   0.158
 4249TIP3    H136200   1.418   1.663   0.132
 4249TIP3    H236201   1.346   1.726   0.250
 4250TIP3   OH236202   1.265   1.728   0.422
 4250TIP3    H136203   1.179   1.769   0.425
 4250TIP3    H236204   1.249   1.635   0.440
 4251TIP3   OH236205   1.576   0.617   1.659
 4251TIP3    H136206   1.501   0.643   1.605
 4251TIP3    H236207   1.550   0.534   1.698
 4252TIP3   OH236208   0.294   1.324   1.419
 4252TIP3    H136209   0.328   1.291   1.502
 4252TIP3    H236210   0.231   1.258   1.391
 4253TIP3   OH236211   0.603   0.199   1.068
 4253TIP3    H136212   0.539   0.209   0.997
 4253TIP3    H236213   0.558   0.233   1.146
 4254TIP3   OH236214   0.995   0.170   1.374
 4254TIP3    H136215   1.025   0.080   1.383
 4254TIP3    H236216   0.900   0.165   1.386
 4255TIP3   OH236217   1.333   0.507   1.484
 4255TIP3    H136218   1.272   0.493   1.556
 4255TIP3    H236219   1.336   0.602   1.473
 4256TIP3   OH236220   1.409   1.032   0.099
 4256TIP3    H136221   1.388   1.125   0.114
 4256TIP3    H236222   1.501   1.033   0.071
 4257TIP3   OH236223   1.026   0.352   0.147
 4257TIP3    H136224   0.957   0.336   0.211
 4257TIP3    H236225   0.982   0.347   0.062
 4258TIP3   OH236226   0.558   0.644   1.203
 4258TIP3    H136227   0.487   0.646   1.267
 4258TIP3    H236228   0.557   0.730   1.163
 4259TIP3   OH236229   0.585   0.648   0.659
 4259TIP3    H136230   0.490   0.635   0.657
 4259TIP3    H236231   0.613   0.630   0.569
 4260TIP3   OH236232   1.110   0.681   0.539
 4260TIP3    H136233   1.086   0.769   0.510
 4260TIP3    H236234   1.173   0.650   0.474
 4261TIP3   OH236235   1.184   0.633   0.832
 4261TIP3    H136236   1.158   0.698   0.767
 4261TIP3    H236237   1.226   0.563   0.782
 4262TIP3   OH236238   0.324   0.639   1.359
 4262TIP3    H136239   0.287   0.697   1.426
 4262TIP3    H236240   0.300   0.551   1.388
 4263TIP3   OH236241   0.700   0.398   0.067
 4263TIP3    H136242   0.706   0.351   0.150
 4263TIP3    H236243   0.680   0.488   0.091
 4264TIP3   OH236244   0.101   0.395   0.823
 4264TIP3    H136245   0.104   0.321   0.883
 4264TIP3    H236246   0.133   0.360   0.740
 4265TIP3   OH236247   0.148   0.503   0.333
 4265TIP3    H136248   0.219   0.528   0.274
 4265TIP3    H236249   0.138   0.577   0.392
 4266TIP3   OH236250   1.073   0.775   1.251
 4266TIP3    H136251   1.142   0.724   1.208
 4266TIP3    H236252   1.039   0.716   1.318
 4267TIP3   OH236253   0.870   0.398   0.761
 4267TIP3    H136254   0.784   0.391   0.801
 4267TIP3    H236255   0.931   0.367   0.828
 4268TIP3   OH236256   0.329   0.563   0.642
 4268TIP3    H136257   0.251   0.584   0.590
 4268TIP3    H236258   0.356   0.477   0.610
 4269TIP3   OH236259   0.636   0.571   0.400
 4269TIP3    H136260   0.729   0.568   0.422
 4269TIP3    H236261   0.634   0.609   0.312
 4270TIP3   OH236262   1.288   0.329   1.045
 4270TIP3    H136263   1.263   0.324   1.138
 4270TIP3    H236264   1.208   0.307   0.998
 4271TIP3   OH236265   0.601   0.644   0.140
 4271TIP3    H136266   0.505   0.649   0.133
 4271TIP3    H236267   0.632   0.703   0.071
 4272TIP3   OH236268   1.602   1.865   1.812
 4272TIP3    H136269   1.626   1.949   1.773
 4272TIP3    H236270   1.656   1.859   1.890
 4273TIP3   OH236271   0.393   1.183   1.646
 4273TIP3    H136272   0.465   1.181   1.709
 4273TIP3    H236273   0.314   1.171   1.699
 4274TIP3   OH236274   0.931   0.697   0.945
 4274TIP3    H136275   1.008   0.650   0.914
 4274TIP3    H236276   0.900   0.646   1.020
 4275TIP3   OH236277   0.443   0.319   0.588
 4275TIP3    H136278   0.385   0.248   0.616
 4275TIP3    H236279   0.478   0.289   0.504
 4276TIP3   OH236280   0.827   0.564   1.173
 4276TIP3    H136281   0.739   0.597   1.190
 4276TIP3    H236282   0.872   0.573   1.258
 4277TIP3   OH236283   0.868   1.137   0.377
 4277TIP3    H136284   0.804   1.088   0.324
 4277TIP3    H236285   0.822   1.154   0.459
 4278TIP3   OH236286   1.589   1.072   1.235
 4278TIP3    H136287   1.630   1.132   1.173
 4278TIP3    H236288   1.501   1.058   1.202
 4279TIP3   OH236289   1.302   0.378   0.172
 4279TIP3    H136290   1.210   0.356   0.154
 4279TIP3    H236291   1.299   0.463   0.216
 4280TIP3   OH236292   1.060   1.218   1.493
 4280TIP3    H136293   1.005   1.140   1.499
 4280TIP3    H236294   1.001   1.291   1.515
 4281TIP3   OH236295   1.308   0.597   0.352
 4281TIP3    H136296   1.393   0.595   0.397
 4281TIP3    H236297   1.306   0.682   0.308
 4282TIP3   OH236298   0.392   1.062   0.931
 4282TIP3    H136299   0.444   1.052   0.852
 4282TIP3    H236300   0.429   0.999   0.993
 4283TIP3   OH236301   1.102   1.272   0.308
 4283TIP3    H136302   1.068   1.361   0.314
 4283TIP3    H236303   1.025   1.216   0.319
 4284TIP3   OH236304   0.164   0.852   1.488
 4284TIP3    H136305   0.173   0.837   1.582
 4284TIP3    H236306   0.070   0.843   1.471
 4285TIP3   OH236307   1.233   1.455   1.505
 4285TIP3    H136308   1.169   1.389   1.480
 4285TIP3    H236309   1.222   1.465   1.600
 4286TIP3   OH236310   1.768   0.657   0.316
 4286TIP3    H136311   1.703   0.630   0.251
 4286TIP3    H236312   1.792   0.746   0.291
 4287TIP3   OH236313   1.851   1.189   1.619
 4287TIP3    H136314   1.760   1.202   1.590
 4287TIP3    H236315   1.898   1.167   1.538
 4288TIP3   OH236316   1.636   1.489   0.362
 4288TIP3    H136317   1.602   1.406   0.395
 4288TIP3    H236318   1.674   1.467   0.277
 4289TIP3   OH236319   1.347   1.012   1.024
 4289TIP3    H136320   1.252   0.995   1.023
 4289TIP3    H236321   1.386   0.930   0.994
 4290TIP3   OH236322   0.627   1.425   0.706
 4290TIP3    H136323   0.649   1.512   0.671
 4290TIP3    H236324   0.532   1.425   0.713
 4291TIP3   OH236325   0.193   0.875   0.184
 4291TIP3    H136326   0.246   0.949   0.213
 4291TIP3    H236327   0.102   0.905   0.196
 4292TIP3   OH236328   0.718   1.188   0.597
 4292TIP3    H136329   0.691   1.273   0.633
 4292TIP3    H236330   0.658   1.126   0.637
 4293TIP3   OH236331   0.829   1.616   1.295
 4293TIP3    H136332   0.897   1.682   1.280
 4293TIP3    H236333   0.867   1.556   1.358
 4294TIP3   OH236334   0.649   1.683   0.600
 4294TIP3    H136335   0.554   1.690   0.609
 4294TIP3    H236336   0.683   1.767   0.630
 4295TIP3   OH236337   1.136   1.218   1.230
 4295TIP3    H136338   1.100   1.214   1.319
 4295TIP3    H236339   1.205   1.152   1.229
 4296TIP3   OH236340   1.360   1.294   0.184
 4296TIP3    H136341   1.408   1.264   0.261
 4296TIP3    H236342   1.268   1.292   0.211
 4297TIP3   OH236343   1.447   1.619   1.476
 4297TIP3    H136344   1.367   1.568   1.481
 4297TIP3    H236345   1.426   1.691   1.417
 4298TIP3   OH236346   1.816   1.723   0.163
 4298TIP3    H136347   1.851   1.762   0.084
 4298TIP3    H236348   1.752   1.787   0.195
 4299TIP3   OH236349   0.233   0.396   1.459
 4299TIP3    H136350   0.187   0.443   1.528
 4299TIP3    H236351   0.267   0.317   1.501
 4300TIP3   OH236352   1.510   1.179   0.387
 4300TIP3    H136353   1.469   1.100   0.422
 4300TIP3    H236354   1.604   1.158   0.386
 4301TIP3   OH236355   0.215   1.564   1.274
 4301TIP3    H136356   0.249   1.488   1.321
 4301TIP3    H236357   0.172   1.616   1.342
 4302TIP3   OH236358   0.677   1.371   0.279
 4302TIP3    H136359   0.739   1.316   0.326
 4302TIP3    H236360   0.703   1.461   0.301
 4303TIP3   OH236361   0.328   1.090   0.300
 4303TIP3    H136362   0.267   1.137   0.357
 4303TIP3    H236363   0.372   1.159   0.251
 4304TIP3   OH236364   1.188   0.353   1.293
 4304TIP3    H136365   1.221   0.398   1.371
 4304TIP3    H236366   1.118   0.297   1.326
 4305TIP3   OH236367   1.229   0.323   0.484
 4305TIP3    H136368   1.223   0.383   0.410
 4305TIP3    H236369   1.264   0.377   0.555
 4306TIP3   OH236370   1.008   1.526   0.352
 4306TIP3    H136371   0.917   1.555   0.355
 4306TIP3    H236372   1.043   1.565   0.273
 4307TIP3   OH236373   0.881   0.527   0.517
 4307TIP3    H136374   0.959   0.583   0.525
 4307TIP3    H236375   0.870   0.490   0.605
 4308TIP3   OH236376   0.962   0.609   1.443
 4308TIP3    H136377   0.984   0.682   1.501
 4308TIP3    H236378   0.948   0.535   1.502
 4309TIP3   OH236379   0.985   0.224   0.568
 4309TIP3    H136380   0.963   0.288   0.636
 4309TIP3    H236381   1.072   0.251   0.537
 4310TIP3   OH236382   0.756   1.622   0.358
 4310TIP3    H136383   0.754   1.706   0.311
 4310TIP3    H236384   0.711   1.641   0.440
 4311TIP3   OH236385   0.545   0.315   0.322
 4311TIP3    H136386   0.550   0.408   0.346
 4311TIP3    H236387   0.634   0.282   0.336
 4312TIP3   OH236388   1.555   0.345   1.444
 4312TIP3    H136389   1.479   0.400   1.465
 4312TIP3    H236390   1.536   0.312   1.356
 4313TIP3   OH236391   1.446   0.762   0.924
 4313TIP3    H136392   1.359   0.723   0.937
 4313TIP3    H236393   1.504   0.708   0.977
 4314TIP3   OH236394   0.439   1.306   0.156
 4314TIP3    H136395   0.499   1.350   0.215
 4314TIP3    H236396   0.496   1.257   0.096
 4315TIP3   OH236397   0.322   0.635   0.147
 4315TIP3    H136398   0.276   0.719   0.151
 4315TIP3    H236399   0.282   0.588   0.074
 4316TIP3   OH236400   1.589   1.726   1.064
 4316TIP3    H136401   1.572   1.795   1.000
 4316TIP3    H236402   1.684   1.728   1.077
 4317TIP3   OH236403   0.368   0.173   0.926
 4317TIP3    H136404   0.337   0.182   0.835
 4317TIP3    H236405   0.352   0.081   0.948
 4318TIP3   OH236406   0.192   1.498   0.533
 4318TIP3    H136407   0.122   1.551   0.497
 4318TIP3    H236408   0.248   1.560   0.580
 4319TIP3   OH236409   0.175   1.750   1.721
 4319TIP3    H136410   0.215   1.757   1.807
 4319TIP3    H236411   0.185   1.658   1.697
 4320TIP3   OH236412   0.653   1.615   1.847
 4320TIP3    H136413   0.709   1.538   1.843
 4320TIP3    H236414   0.585   1.599   1.781
 4321TIP3   OH236415   1.098   1.621   0.118
 4321TIP3    H136416   1.040   1.591   0.048
 4321TIP3    H236417   1.181   1.640   0.073
 4322TIP3   OH236418   1.230   1.480   1.782
 4322TIP3    H136419   1.233   1.396   1.828
 4322TIP3    H236420   1.308   1.527   1.811
 4323TIP3   OH236421   1.478   1.512   0.054
 4323TIP3    H136422   1.439   1.437   0.098
 4323TIP3    H236423   1.572   1.493   0.053
 4324TIP3   OH236424   0.181   1.160   1.824
 4324TIP3    H136425   0.199   1.089   1.885
 4324TIP3    H236426   0.094   1.142   1.790
 4325TIP3   OH236427   0.636   1.162   0.028
 4325TIP3    H136428   0.656   1.113   0.107
 4325TIP3    H236429   0.631   1.096  -0.042
 4326TIP3   OH236430   0.817   1.155   1.675
 4326TIP3    H136431   0.751   1.205   1.628
 4326TIP3    H236432   0.787   1.064   1.668
 4327TIP3   OH236433   1.333   1.124   1.440
 4327TIP3    H136434   1.396   1.136   1.511
 4327TIP3    H236435   1.249   1.149   1.478
 4328TIP3   OH236436   0.229   0.799   1.749
 4328TIP3    H136437   0.308   0.746   1.756
 4328TIP3    H236438   0.220   0.842   1.834
 4329TIP3   OH236439   0.687   0.983   0.236
 4329TIP3    H136440   0.622   0.936   0.287
 4329TIP3    H236441   0.723   0.917   0.177
 4330TIP3   OH236442   0.811   0.824   0.046
 4330TIP3    H136443   0.825   0.824  -0.049
 4330TIP3    H236444   0.898   0.804   0.082
 4331TIP3   OH236445   1.665   1.067   8.481
 4331TIP3    H136446   1.614   1.057   8.401
 4331TIP3    H236447   1.692   1.159   8.481
 4332TIP3   OH236448   0.650   0.540   1.562
 4332TIP3    H136449   0.655   0.474   1.492
 4332TIP3    H236450   0.626   0.621   1.517
 4333TIP3   OH236451   0.681   0.368   1.341
 4333TIP3    H136452   0.730   0.400   1.266
 4333TIP3    H236453   0.591   0.363   1.311
 4334TIP3   OH236454   0.910   0.991   1.367
 4334TIP3    H136455   0.947   0.922   1.312
 4334TIP3    H236456   0.823   1.006   1.331
 4335TIP3   OH236457   0.440   0.619   1.742
 4335TIP3    H136458   0.398   0.554   1.799
 4335TIP3    H236459   0.510   0.572   1.698
 4336TIP3   OH236460   0.697   0.097   1.395
 4336TIP3    H136461   0.693   0.191   1.380
 4336TIP3    H236462   0.605   0.069   1.392
 4337TIP3   OH236463   0.884   0.455   1.678
 4337TIP3    H136464   0.861   0.405   1.757
 4337TIP3    H236465   0.800   0.488   1.646
 4338TIP3   OH236466   1.162   0.461   1.686
 4338TIP3    H136467   1.067   0.450   1.693
 4338TIP3    H236468   1.197   0.419   1.765
 4339TIP3   OH236469   1.308   0.339   1.901
 4339TIP3    H136470   1.297   0.248   1.876
 4339TIP3    H236471   1.237   0.356   1.962
 4340TIP3   OH236472   0.322   0.380   1.840
 4340TIP3    H136473   0.358   0.294   1.859
 4340TIP3    H236474   0.273   0.404   1.918
 4341TIP3   OH236475   0.734   0.067   1.670
 4341TIP3    H136476   0.755  -0.026   1.677
 4341TIP3    H236477   0.726   0.083   1.576
 4342TIP3   OH236478   0.853   0.222   1.860
 4342TIP3    H136479   0.817   0.164   1.793
 4342TIP3    H236480   0.781   0.280   1.884
 4343TIP3   OH236481   0.779   1.879   0.257
 4343TIP3    H136482   0.782   1.895   0.163
 4343TIP3    H236483   0.695   1.916   0.285
 4344TIP3   OH236484   0.175   1.305   0.067
 4344TIP3    H136485   0.257   1.323   0.113
 4344TIP3    H236486   0.184   1.351  -0.016
 4345TIP3   OH236487   0.044   1.814   0.612
 4345TIP3    H136488  -0.044   1.848   0.628
 4345TIP3    H236489   0.063   1.759   0.688
 4346TIP3   OH236490   0.107   1.676   0.844
 4346TIP3    H136491   0.116   1.584   0.870
 4346TIP3    H236492   0.148   1.725   0.916
 4347TIP3   OH236493   1.855   1.755   1.106
 4347TIP3    H136494   1.854   1.822   1.175
 4347TIP3    H236495   1.944   1.761   1.070
 4348TIP3   OH236496   1.805   1.631   1.410
 4348TIP3    H136497   1.747   1.580   1.353
 4348TIP3    H236498   1.750   1.654   1.485
 4349TIP3   OH236499   1.603   1.304   1.868
 4349TIP3    H136500   1.518   1.318   1.910
 4349TIP3    H236501   1.660   1.371   1.905
 4350TIP3   OH236502   1.776   1.103   0.406
 4350TIP3    H136503   1.848   1.166   0.410
 4350TIP3    H236504   1.791   1.044   0.480
 4351TIP3   OH236505   1.823   0.914   0.604
 4351TIP3    H136506   1.742   0.882   0.643
 4351TIP3    H236507   1.878   0.936   0.679
 4352TIP3   OH236508   1.782   1.222   1.101
 4352TIP3    H136509   1.837   1.148   1.073
 4352TIP3    H236510   1.823   1.298   1.059
 4353TIP3   OH236511   1.602   1.468   1.307
 4353TIP3    H136512   1.539   1.512   1.364
 4353TIP3    H236513   1.552   1.445   1.229
 4354TIP3   OH236514   1.812   0.918   0.206
 4354TIP3    H136515   1.754   0.946   0.134
 4354TIP3    H236516   1.797   0.981   0.275
 4355TIP3   OH236517   1.593   0.610   0.104
 4355TIP3    H136518   1.662   0.638   0.045
 4355TIP3    H236519   1.566   0.524   0.071
 4356TIP3   OH236520   1.583   0.801   0.686
 4356TIP3    H136521   1.571   0.714   0.647
 4356TIP3    H236522   1.539   0.796   0.771
 4357TIP3   OH236523   0.137   1.030   1.038
 4357TIP3    H136524   0.214   1.055   0.988
 4357TIP3    H236525   0.171   0.997   1.121
 4358TIP3   OH236526   1.649   0.945   1.580
 4358TIP3    H136527   1.703   0.881   1.626
 4358TIP3    H236528   1.642   1.019   1.641
 4359TIP3   OH236529   1.800   0.759   1.716
 4359TIP3    H136530   1.717   0.712   1.708
 4359TIP3    H236531   1.867   0.693   1.703
 4360TIP3   OH236532   1.530   0.352   0.018
 4360TIP3    H136533   1.593   0.323   0.084
 4360TIP3    H236534   1.445   0.350   0.063
 4361TIP3   OH236535   1.553   0.585   0.500
 4361TIP3    H136536   1.579   0.494   0.514
 4361TIP3    H236537   1.623   0.622   0.446
 4362TIP3   OH236538   1.617   0.594   1.060
 4362TIP3    H136539   1.711   0.610   1.047
 4362TIP3    H236540   1.602   0.613   1.153
 4363TIP3   OH236541   1.623   0.692   1.322
 4363TIP3    H136542   1.543   0.712   1.370
 4363TIP3    H236543   1.675   0.772   1.328
 4364TIP3   OH236544   0.141   0.523   1.685
 4364TIP3    H136545   0.149   0.609   1.725
 4364TIP3    H236546   0.191   0.465   1.742
 4365TIP3   OH236547   1.882   0.127   1.842
 4365TIP3    H136548   1.973   0.150   1.860
 4365TIP3    H236549   1.855   0.188   1.772
 4366TIP3   OH236550   1.617   0.326   0.545
 4366TIP3    H136551   1.623   0.293   0.634
 4366TIP3    H236552   1.557   0.266   0.501
 4367TIP3   OH236553   0.174   0.299   1.076
 4367TIP3    H136554   0.138   0.253   1.151
 4367TIP3    H236555   0.242   0.240   1.042
 4368TIP3   OH236556   0.065   0.689   1.136
 4368TIP3    H136557   0.114   0.771   1.131
 4368TIP3    H236558   0.027   0.689   1.224
 4369TIP3   OH236559   1.795   0.330   1.672
 4369TIP3    H136560   1.717   0.355   1.722
 4369TIP3    H236561   1.761   0.271   1.605
 4370TIP3   OH236562   1.784   0.308   0.135
 4370TIP3    H136563   1.814   0.296   0.045
 4370TIP3    H236564   1.852   0.361   0.176
 4371TIP3   OH236565   0.089   0.279   0.495
 4371TIP3    H136566  -0.007   0.278   0.495
 4371TIP3    H236567   0.112   0.355   0.442
 4372TIP3   OH236568   1.581   1.671   0.726
 4372TIP3    H136569   1.621   1.695   0.642
 4372TIP3    H236570   1.576   1.754   0.774
 4373TIP3   OH236571   0.080   0.185   1.301
 4373TIP3    H136572   0.087   0.235   1.381
 4373TIP3    H236573  -0.014   0.169   1.291
 4374TIP3   OH236574   0.229   1.477   1.706
 4374TIP3    H136575   0.182   1.402   1.669
 4374TIP3    H236576   0.222   1.466   1.800
 4375TIP3   OH236577   0.558   1.582   1.349
 4375TIP3    H136578   0.525   1.668   1.322
 4375TIP3    H236579   0.653   1.590   1.344
 4376TIP3   OH236580   0.947   1.700   1.648
 4376TIP3    H136581   0.955   1.677   1.740
 4376TIP3    H236582   1.023   1.756   1.631
 4377TIP3   OH236583   1.175   1.859   1.620
 4377TIP3    H136584   1.246   1.806   1.582
 4377TIP3    H236585   1.210   1.888   1.705
 4378TIP3   OH236586   1.720   0.131   1.488
 4378TIP3    H136587   1.648   0.191   1.466
 4378TIP3    H236588   1.684   0.044   1.472
 4379TIP3   OH236589   0.293   1.911   1.386
 4379TIP3    H136590   0.211   1.938   1.346
 4379TIP3    H236591   0.282   1.929   1.479
 4380TIP3   OH236592   0.532   1.849   1.272
 4380TIP3    H136593   0.448   1.869   1.314
 4380TIP3    H236594   0.529   1.896   1.189
 4381TIP3   OH236595   0.998   1.828   1.175
 4381TIP3    H136596   0.922   1.857   1.123
 4381TIP3    H236597   1.004   1.894   1.245
 4382TIP3   OH236598   1.228   1.708   1.277
 4382TIP3    H136599   1.146   1.750   1.250
 4382TIP3    H236600   1.293   1.779   1.276
 4383TIP3   OH236601   1.482   1.834   1.293
 4383TIP3    H136602   1.494   1.925   1.264
 4383TIP3    H236603   1.518   1.781   1.222
 4384TIP3   OH236604   0.267   1.758   1.057
 4384TIP3    H136605   0.243   1.719   1.142
 4384TIP3    H236606   0.334   1.699   1.022
 4385TIP3   OH236607   0.451   1.597   0.931
 4385TIP3    H136608   0.433   1.506   0.954
 4385TIP3    H236609   0.537   1.615   0.969
 4386TIP3   OH236610   0.708   1.638   1.044
 4386TIP3    H136611   0.715   1.547   1.017
 4386TIP3    H236612   0.735   1.639   1.136
 4387TIP3   OH236613   1.065   0.254   0.899
 4387TIP3    H136614   0.996   0.194   0.926
 4387TIP3    H236615   1.128   0.199   0.853
 4388TIP3   OH236616   1.492   0.112   0.927
 4388TIP3    H136617   1.538   0.193   0.906
 4388TIP3    H236618   1.406   0.121   0.885
 4389TIP3   OH236619   1.789   0.168   0.718
 4389TIP3    H136620   1.816   0.192   0.630
 4389TIP3    H236621   1.808   0.246   0.771
 4390TIP3   OH236622   0.251   0.150   0.679
 4390TIP3    H136623   0.184   0.169   0.613
 4390TIP3    H236624   0.264   0.056   0.673
 4391TIP3   OH236625   0.087   0.109   0.273
 4391TIP3    H136626   0.160   0.141   0.221
 4391TIP3    H236627   0.095   0.154   0.357
 4392TIP3   OH236628   0.772   0.088   0.675
 4392TIP3    H136629   0.846   0.126   0.628
 4392TIP3    H236630   0.790   0.104   0.767
 4393TIP3   OH236631   1.267   0.121   0.761
 4393TIP3    H136632   1.263   0.152   0.670
 4393TIP3    H236633   1.249   0.027   0.755
 4394TIP3   OH236634   1.450   0.157   0.412
 4394TIP3    H136635   1.366   0.203   0.413
 4394TIP3    H236636   1.427   0.064   0.409
 4395TIP3   OH236637   0.230   1.732   0.267
 4395TIP3    H136638   0.152   1.688   0.301
 4395TIP3    H236639   0.284   1.750   0.344
 4396TIP3   OH236640   0.321   0.211   0.160
 4396TIP3    H136641   0.372   0.182   0.085
 4396TIP3    H236642   0.386   0.248   0.221
 4397TIP3   OH236643   0.828   0.311   0.351
 4397TIP3    H136644   0.867   0.242   0.405
 4397TIP3    H236645   0.842   0.391   0.400
 4398TIP3   OH236646   1.150   1.911   0.145
 4398TIP3    H136647   1.228   1.855   0.140
 4398TIP3    H236648   1.077   1.853   0.123
 4399TIP3   OH236649   1.693   1.732   0.479
 4399TIP3    H136650   1.675   1.648   0.437
 4399TIP3    H236651   1.676   1.797   0.411
 4400TIP3   OH236652   0.330   0.169   1.569
 4400TIP3    H136653   0.279   0.089   1.581
 4400TIP3    H236654   0.380   0.178   1.650
 4401TIP3   OH236655   0.489   0.121   1.797
 4401TIP3    H136656   0.574   0.107   1.755
 4401TIP3    H236657   0.464   0.034   1.828
 4402TIP3   OH236658   0.442   1.768   0.085
 4402TIP3    H136659   0.442   1.795   0.177
 4402TIP3    H236660   0.361   1.719   0.074
 4403TIP3   OH236661   1.263   0.089   1.794
 4403TIP3    H136662   1.274  -0.004   1.813
 4403TIP3    H236663   1.199   0.092   1.722
 4404TIP3   OH236664   1.662   1.643   1.649
 4404TIP3    H136665   1.581   1.619   1.605
 4404TIP3    H236666   1.636   1.712   1.711
 4405TIP3   OH236667   3.078   0.968   0.675
 4405TIP3    H136668   3.071   1.063   0.676
 4405TIP3    H236669   3.012   0.939   0.611
 4406TIP3   OH236670   2.965   0.931   1.057
 4406TIP3    H136671   2.985   0.889   1.141
 4406TIP3    H236672   2.919   0.864   1.007
 4407TIP3   OH236673   2.161   0.891   1.178
 4407TIP3    H136674   2.162   0.804   1.218
 4407TIP3    H236675   2.222   0.943   1.230
 4408TIP3   OH236676   3.329   1.236   0.867
 4408TIP3    H136677   3.296   1.159   0.913
 4408TIP3    H236678   3.351   1.298   0.936
 4409TIP3   OH236679   2.301   1.341   0.995
 4409TIP3    H136680   2.273   1.253   0.969
 4409TIP3    H236681   2.396   1.334   1.003
 4410TIP3   OH236682   1.952   0.670   0.535
 4410TIP3    H136683   1.925   0.755   0.569
 4410TIP3    H236684   1.886   0.647   0.470
 4411TIP3   OH236685   2.021   0.947   0.799
 4411TIP3    H136686   2.050   0.859   0.823
 4411TIP3    H236687   2.098   1.002   0.814
 4412TIP3   OH236688   3.067   1.746   0.877
 4412TIP3    H136689   3.100   1.677   0.819
 4412TIP3    H236690   3.024   1.698   0.948
 4413TIP3   OH236691   2.782   1.184   1.054
 4413TIP3    H136692   2.823   1.108   1.013
 4413TIP3    H236693   2.848   1.217   1.115
 4414TIP3   OH236694   3.690   0.328   1.147
 4414TIP3    H136695   3.690   0.391   1.220
 4414TIP3    H236696   3.761   0.356   1.090
 4415TIP3   OH236697   3.116   0.614   1.094
 4415TIP3    H136698   3.141   0.523   1.107
 4415TIP3    H236699   3.102   0.622   1.000
 4416TIP3   OH236700   2.461   0.395   0.811
 4416TIP3    H136701   2.483   0.480   0.772
 4416TIP3    H236702   2.413   0.348   0.743
 4417TIP3   OH236703   3.231   0.472   0.659
 4417TIP3    H136704   3.271   0.447   0.743
 4417TIP3    H236705   3.301   0.514   0.610
 4418TIP3   OH236706   2.107   0.698   0.879
 4418TIP3    H136707   2.174   0.662   0.937
 4418TIP3    H236708   2.125   0.658   0.794
 4419TIP3   OH236709   2.599   0.811   0.834
 4419TIP3    H136710   2.684   0.777   0.864
 4419TIP3    H236711   2.564   0.740   0.780
 4420TIP3   OH236712   3.697   0.484   1.369
 4420TIP3    H136713   3.620   0.541   1.368
 4420TIP3    H236714   3.731   0.492   1.458
 4421TIP3   OH236715   2.307   0.338   1.208
 4421TIP3    H136716   2.268   0.393   1.141
 4421TIP3    H236717   2.240   0.332   1.277
 4422TIP3   OH236718   3.032   1.221   0.578
 4422TIP3    H136719   3.028   1.236   0.483
 4422TIP3    H236720   2.989   1.298   0.615
 4423TIP3   OH236721   2.562   1.096   1.196
 4423TIP3    H136722   2.512   1.166   1.239
 4423TIP3    H236723   2.632   1.141   1.149
 4424TIP3   OH236724   3.345   0.438   0.903
 4424TIP3    H136725   3.293   0.392   0.969
 4424TIP3    H236726   3.419   0.476   0.952
 4425TIP3   OH236727   2.296   0.527   0.998
 4425TIP3    H136728   2.358   0.569   1.058
 4425TIP3    H236729   2.351   0.483   0.933
 4426TIP3   OH236730   2.427   1.308   1.317
 4426TIP3    H136731   2.429   1.403   1.301
 4426TIP3    H236732   2.336   1.291   1.343
 4427TIP3   OH236733   1.994   1.279   0.391
 4427TIP3    H136734   1.990   1.319   0.305
 4427TIP3    H236735   2.020   1.350   0.450
 4428TIP3   OH236736   3.402   1.434   1.066
 4428TIP3    H136737   3.313   1.431   1.102
 4428TIP3    H236738   3.417   1.526   1.046
 4429TIP3   OH236739   3.458   0.185   1.215
 4429TIP3    H136740   3.406   0.173   1.136
 4429TIP3    H236741   3.535   0.235   1.185
 4430TIP3   OH236742   2.723   0.094   0.946
 4430TIP3    H136743   2.717   0.001   0.966
 4430TIP3    H236744   2.649   0.133   0.993
 4431TIP3   OH236745   3.189   1.572   0.691
 4431TIP3    H136746   3.231   1.488   0.673
 4431TIP3    H236747   3.262   1.634   0.699
 4432TIP3   OH236748   3.333   1.351   0.612
 4432TIP3    H136749   3.322   1.280   0.549
 4432TIP3    H236750   3.335   1.307   0.697
 4433TIP3   OH236751   3.533   1.242   1.421
 4433TIP3    H136752   3.598   1.214   1.356
 4433TIP3    H236753   3.525   1.336   1.407
 4434TIP3   OH236754   2.936   0.928   0.438
 4434TIP3    H136755   2.873   0.999   0.422
 4434TIP3    H236756   3.002   0.939   0.369
 4435TIP3   OH236757   2.954   0.772   0.132
 4435TIP3    H136758   3.023   0.809   0.188
 4435TIP3    H236759   2.997   0.698   0.089
 4436TIP3   OH236760   3.658   0.879   1.275
 4436TIP3    H136761   3.589   0.942   1.252
 4436TIP3    H236762   3.713   0.876   1.197
 4437TIP3   OH236763   3.302   0.952   0.515
 4437TIP3    H136764   3.230   0.961   0.578
 4437TIP3    H236765   3.371   0.907   0.564
 4438TIP3   OH236766   3.264   0.763   1.459
 4438TIP3    H136767   3.257   0.819   1.536
 4438TIP3    H236768   3.191   0.789   1.403
 4439TIP3   OH236769   2.443   1.001   0.704
 4439TIP3    H136770   2.420   0.964   0.619
 4439TIP3    H236771   2.501   0.936   0.743
 4440TIP3   OH236772   2.581   1.363   0.964
 4440TIP3    H136773   2.581   1.370   0.868
 4440TIP3    H236774   2.655   1.305   0.983
 4441TIP3   OH236775   2.452   0.884   1.057
 4441TIP3    H136776   2.508   0.867   0.981
 4441TIP3    H236777   2.492   0.958   1.101
 4442TIP3   OH236778   3.159   1.433   1.184
 4442TIP3    H136779   3.127   1.517   1.216
 4442TIP3    H236780   3.088   1.372   1.200
 4443TIP3   OH236781   2.597   1.332   1.536
 4443TIP3    H136782   2.540   1.392   1.583
 4443TIP3    H236783   2.547   1.308   1.458
 4444TIP3   OH236784   3.173   0.880   0.282
 4444TIP3    H136785   3.219   0.905   0.362
 4444TIP3    H236786   3.221   0.925   0.212
 4445TIP3   OH236787   2.264   0.973   1.449
 4445TIP3    H136788   2.266   1.044   1.513
 4445TIP3    H236789   2.176   0.936   1.457
 4446TIP3   OH236790   2.933   1.474   0.625
 4446TIP3    H136791   3.012   1.519   0.654
 4446TIP3    H236792   2.917   1.508   0.537
 4447TIP3   OH236793   2.420   1.530   1.621
 4447TIP3    H136794   2.415   1.560   1.530
 4447TIP3    H236795   2.330   1.509   1.645
 4448TIP3   OH236796   3.530   0.105   0.226
 4448TIP3    H136797   3.470   0.131   0.295
 4448TIP3    H236798   3.596   0.175   0.224
 4449TIP3   OH236799   2.363   0.914   0.443
 4449TIP3    H136800   2.306   0.983   0.409
 4449TIP3    H236801   2.309   0.836   0.442
 4450TIP3   OH236802   3.647   1.455   0.150
 4450TIP3    H136803   3.671   1.547   0.141
 4450TIP3    H236804   3.728   1.407   0.136
 4451TIP3   OH236805   1.952   1.145   1.364
 4451TIP3    H136806   1.879   1.179   1.312
 4451TIP3    H236807   1.946   1.050   1.355
 4452TIP3   OH236808   1.950   1.439   1.022
 4452TIP3    H136809   2.041   1.412   1.041
 4452TIP3    H236810   1.929   1.501   1.092
 4453TIP3   OH236811   3.768   1.504   1.688
 4453TIP3    H136812   3.759   1.413   1.660
 4453TIP3    H236813   3.680   1.529   1.717
 4454TIP3   OH236814   2.830   1.470   1.481
 4454TIP3    H136815   2.897   1.467   1.549
 4454TIP3    H236816   2.756   1.423   1.519
 4455TIP3   OH236817   2.941   1.845   0.437
 4455TIP3    H136818   2.914   1.877   0.351
 4455TIP3    H236819   2.902   1.907   0.499
 4456TIP3   OH236820   2.257   1.689   0.677
 4456TIP3    H136821   2.277   1.659   0.765
 4456TIP3    H236822   2.201   1.621   0.640
 4457TIP3   OH236823   3.231   1.743   0.164
 4457TIP3    H136824   3.277   1.677   0.111
 4457TIP3    H236825   3.140   1.714   0.165
 4458TIP3   OH236826   3.176   1.712   0.456
 4458TIP3    H136827   3.087   1.747   0.448
 4458TIP3    H236828   3.173   1.657   0.534
 4459TIP3   OH236829   3.437   0.626   1.670
 4459TIP3    H136830   3.384   0.668   1.602
 4459TIP3    H236831   3.441   0.534   1.643
 4460TIP3   OH236832   2.169   1.301   1.418
 4460TIP3    H136833   2.186   1.281   1.511
 4460TIP3    H236834   2.095   1.245   1.395
 4461TIP3   OH236835   2.478   0.209   1.027
 4461TIP3    H136836   2.471   0.263   0.948
 4461TIP3    H236837   2.407   0.240   1.083
 4462TIP3   OH236838   2.852   0.149   1.443
 4462TIP3    H136839   2.902   0.067   1.445
 4462TIP3    H236840   2.787   0.136   1.375
 4463TIP3   OH236841   3.171   0.496   1.456
 4463TIP3    H136842   3.148   0.480   1.547
 4463TIP3    H236843   3.213   0.582   1.456
 4464TIP3   OH236844   3.312   1.028   0.096
 4464TIP3    H136845   3.389   1.025   0.040
 4464TIP3    H236846   3.323   1.107   0.149
 4465TIP3   OH236847   2.919   0.362   0.145
 4465TIP3    H136848   2.846   0.344   0.205
 4465TIP3    H236849   2.884   0.342   0.059
 4466TIP3   OH236850   2.427   0.653   1.210
 4466TIP3    H136851   2.342   0.669   1.251
 4466TIP3    H236852   2.447   0.734   1.163
 4467TIP3   OH236853   2.459   0.634   0.673
 4467TIP3    H136854   2.363   0.631   0.672
 4467TIP3    H236855   2.484   0.620   0.582
 4468TIP3   OH236856   2.990   0.675   0.530
 4468TIP3    H136857   2.968   0.762   0.497
 4468TIP3    H236858   3.062   0.645   0.474
 4469TIP3   OH236859   2.850   0.694   1.695
 4469TIP3    H136860   2.828   0.615   1.744
 4469TIP3    H236861   2.894   0.750   1.758
 4470TIP3   OH236862   3.082   0.650   0.822
 4470TIP3    H136863   3.069   0.725   0.764
 4470TIP3    H236864   3.113   0.580   0.765
 4471TIP3   OH236865   2.196   0.659   1.354
 4471TIP3    H136866   2.137   0.716   1.403
 4471TIP3    H236867   2.166   0.570   1.374
 4472TIP3   OH236868   2.561   0.394   0.077
 4472TIP3    H136869   2.578   0.350   0.161
 4472TIP3    H236870   2.551   0.486   0.101
 4473TIP3   OH236871   1.890   0.414   0.777
 4473TIP3    H136872   1.937   0.423   0.860
 4473TIP3    H236873   1.950   0.450   0.711
 4474TIP3   OH236874   1.974   0.466   0.267
 4474TIP3    H136875   2.041   0.508   0.212
 4474TIP3    H236876   1.912   0.536   0.286
 4475TIP3   OH236877   3.034   0.784   1.288
 4475TIP3    H136878   3.072   0.725   1.223
 4475TIP3    H236879   2.974   0.729   1.339
 4476TIP3   OH236880   2.758   0.397   0.765
 4476TIP3    H136881   2.674   0.377   0.806
 4476TIP3    H236882   2.823   0.365   0.828
 4477TIP3   OH236883   2.189   0.578   0.645
 4477TIP3    H136884   2.112   0.600   0.591
 4477TIP3    H236885   2.215   0.492   0.613
 4478TIP3   OH236886   2.513   0.580   0.406
 4478TIP3    H136887   2.605   0.578   0.430
 4478TIP3    H236888   2.512   0.617   0.318
 4479TIP3   OH236889   3.148   0.340   1.072
 4479TIP3    H136890   3.113   0.323   1.159
 4479TIP3    H236891   3.080   0.309   1.012
 4480TIP3   OH236892   2.492   0.655   0.140
 4480TIP3    H136893   2.415   0.675   0.086
 4480TIP3    H236894   2.560   0.714   0.107
 4481TIP3   OH236895   3.455   1.911   1.766
 4481TIP3    H136896   3.471   1.987   1.710
 4481TIP3    H236897   3.524   1.915   1.832
 4482TIP3   OH236898   2.228   1.180   1.680
 4482TIP3    H136899   2.303   1.167   1.738
 4482TIP3    H236900   2.154   1.141   1.728
 4483TIP3   OH236901   2.829   0.699   0.947
 4483TIP3    H136902   2.906   0.662   0.903
 4483TIP3    H236903   2.809   0.637   1.017
 4484TIP3   OH236904   2.303   0.330   0.587
 4484TIP3    H136905   2.247   0.256   0.613
 4484TIP3    H236906   2.342   0.302   0.504
 4485TIP3   OH236907   2.730   0.574   1.191
 4485TIP3    H136908   2.686   0.658   1.203
 4485TIP3    H236909   2.793   0.570   1.262
 4486TIP3   OH236910   2.756   1.137   0.371
 4486TIP3    H136911   2.686   1.092   0.324
 4486TIP3    H236912   2.718   1.159   0.456
 4487TIP3   OH236913   3.415   1.036   1.247
 4487TIP3    H136914   3.472   1.104   1.212
 4487TIP3    H236915   3.352   1.019   1.177
 4488TIP3   OH236916   3.191   0.384   0.193
 4488TIP3    H136917   3.101   0.371   0.165
 4488TIP3    H236918   3.192   0.471   0.234
 4489TIP3   OH236919   2.928   1.158   1.500
 4489TIP3    H136920   2.880   1.095   1.553
 4489TIP3    H236921   2.891   1.243   1.525
 4490TIP3   OH236922   3.200   0.610   0.353
 4490TIP3    H136923   3.283   0.602   0.400
 4490TIP3    H236924   3.203   0.699   0.316
 4491TIP3   OH236925   2.264   1.067   0.908
 4491TIP3    H136926   2.326   1.054   0.836
 4491TIP3    H236927   2.290   1.002   0.973
 4492TIP3   OH236928   2.985   1.276   0.300
 4492TIP3    H136929   2.955   1.365   0.317
 4492TIP3    H236930   2.908   1.221   0.313
 4493TIP3   OH236931   2.013   0.844   1.463
 4493TIP3    H136932   1.980   0.820   1.550
 4493TIP3    H236933   1.934   0.849   1.409
 4494TIP3   OH236934   2.713   0.914   1.596
 4494TIP3    H136935   2.627   0.873   1.586
 4494TIP3    H236936   2.767   0.847   1.638
 4495TIP3   OH236937   3.618   0.689   0.323
 4495TIP3    H136938   3.576   0.646   0.249
 4495TIP3    H236939   3.648   0.773   0.288
 4496TIP3   OH236940   3.757   1.246   1.597
 4496TIP3    H136941   3.666   1.217   1.592
 4496TIP3    H236942   3.800   1.206   1.521
 4497TIP3   OH236943   3.474   1.536   0.355
 4497TIP3    H136944   3.443   1.464   0.411
 4497TIP3    H236945   3.527   1.492   0.288
 4498TIP3   OH236946   3.244   1.003   1.024
 4498TIP3    H136947   3.150   0.986   1.021
 4498TIP3    H236948   3.284   0.926   0.985
 4499TIP3   OH236949   2.512   1.431   0.695
 4499TIP3    H136950   2.539   1.517   0.664
 4499TIP3    H236951   2.420   1.424   0.671
 4500TIP3   OH236952   2.090   0.913   0.155
 4500TIP3    H136953   2.124   0.973   0.221
 4500TIP3    H236954   1.996   0.913   0.168
 4501TIP3   OH236955   2.612   1.193   0.593
 4501TIP3    H136956   2.591   1.279   0.631
 4501TIP3    H236957   2.556   1.132   0.640
 4502TIP3   OH236958   2.712   1.622   1.287
 4502TIP3    H136959   2.773   1.693   1.266
 4502TIP3    H236960   2.760   1.568   1.350
 4503TIP3   OH236961   2.519   1.694   0.592
 4503TIP3    H136962   2.427   1.708   0.611
 4503TIP3    H236963   2.564   1.770   0.628
 4504TIP3   OH236964   2.990   1.214   1.233
 4504TIP3    H136965   2.965   1.193   1.323
 4504TIP3    H236966   3.053   1.146   1.209
 4505TIP3   OH236967   3.247   1.327   0.188
 4505TIP3    H136968   3.298   1.286   0.258
 4505TIP3    H236969   3.156   1.312   0.212
 4506TIP3   OH236970   3.322   1.619   1.485
 4506TIP3    H136971   3.244   1.612   1.541
 4506TIP3    H236972   3.302   1.692   1.426
 4507TIP3   OH236973   3.705   1.723   0.142
 4507TIP3    H136974   3.732   1.728   0.050
 4507TIP3    H236975   3.659   1.805   0.158
 4508TIP3   OH236976   2.129   0.397   1.420
 4508TIP3    H136977   2.034   0.407   1.416
 4508TIP3    H236978   2.143   0.321   1.476
 4509TIP3   OH236979   3.387   1.172   0.370
 4509TIP3    H136980   3.352   1.097   0.419
 4509TIP3    H236981   3.482   1.163   0.378
 4510TIP3   OH236982   2.155   1.557   1.322
 4510TIP3    H136983   2.159   1.462   1.336
 4510TIP3    H236984   2.247   1.583   1.316
 4511TIP3   OH236985   2.536   1.378   0.281
 4511TIP3    H136986   2.598   1.317   0.321
 4511TIP3    H236987   2.570   1.465   0.303
 4512TIP3   OH236988   2.198   1.104   0.324
 4512TIP3    H136989   2.125   1.150   0.367
 4512TIP3    H236990   2.243   1.172   0.274
 4513TIP3   OH236991   3.017   0.328   1.310
 4513TIP3    H136992   3.079   0.377   1.364
 4513TIP3    H236993   2.970   0.272   1.372
 4514TIP3   OH236994   3.108   0.304   0.478
 4514TIP3    H136995   3.112   0.350   0.394
 4514TIP3    H236996   3.142   0.366   0.542
 4515TIP3   OH236997   2.891   1.530   0.349
 4515TIP3    H136998   2.801   1.559   0.357
 4515TIP3    H236999   2.930   1.588   0.284
 4516TIP3   OH237000   2.758   0.533   0.525
 4516TIP3    H137001   2.839   0.585   0.526
 4516TIP3    H237002   2.753   0.493   0.612
 4517TIP3   OH237003   2.879   0.604   1.430
 4517TIP3    H137004   2.868   0.637   1.520
 4517TIP3    H237005   2.939   0.530   1.439
 4518TIP3   OH237006   2.863   0.214   0.570
 4518TIP3    H137007   2.850   0.278   0.640
 4518TIP3    H237008   2.952   0.230   0.539
 4519TIP3   OH237009   2.634   1.625   0.353
 4519TIP3    H137010   2.627   1.706   0.303
 4519TIP3    H237011   2.595   1.645   0.438
 4520TIP3   OH237012   2.441   0.317   0.339
 4520TIP3    H137013   2.443   0.410   0.361
 4520TIP3    H237014   2.531   0.287   0.355
 4521TIP3   OH237015   3.429   0.392   1.525
 4521TIP3    H137016   3.350   0.401   1.471
 4521TIP3    H237017   3.470   0.312   1.495
 4522TIP3   OH237018   3.344   0.763   0.920
 4522TIP3    H137019   3.266   0.707   0.913
 4522TIP3    H237020   3.406   0.711   0.971
 4523TIP3   OH237021   2.293   1.316   0.166
 4523TIP3    H137022   2.361   1.357   0.219
 4523TIP3    H237023   2.341   1.269   0.097
 4524TIP3   OH237024   2.123   0.640   0.091
 4524TIP3    H137025   2.116   0.733   0.114
 4524TIP3    H237026   2.109   0.638  -0.003
 4525TIP3   OH237027   3.476   1.709   1.061
 4525TIP3    H137028   3.453   1.777   0.997
 4525TIP3    H237029   3.568   1.725   1.081
 4526TIP3   OH237030   2.184   0.167   0.945
 4526TIP3    H137031   2.174   0.164   0.849
 4526TIP3    H237032   2.170   0.077   0.973
 4527TIP3   OH237033   2.070   1.504   0.558
 4527TIP3    H137034   2.015   1.533   0.631
 4527TIP3    H237035   2.051   1.566   0.487
 4528TIP3   OH237036   2.021   1.722   1.699
 4528TIP3    H137037   2.086   1.735   1.768
 4528TIP3    H237038   1.938   1.752   1.738
 4529TIP3   OH237039   2.509   1.735   1.790
 4529TIP3    H137040   2.549   1.701   1.870
 4529TIP3    H237041   2.483   1.657   1.741
 4530TIP3   OH237042   2.969   1.652   0.098
 4530TIP3    H137043   2.919   1.573   0.076
 4530TIP3    H237044   2.982   1.696   0.013
 4531TIP3   OH237045   3.362   1.541   0.043
 4531TIP3    H137046   3.323   1.466   0.089
 4531TIP3    H237047   3.454   1.517   0.034
 4532TIP3   OH237048   2.002   1.090   1.823
 4532TIP3    H137049   2.020   0.998   1.805
 4532TIP3    H237050   1.936   1.115   1.758
 4533TIP3   OH237051   2.466   1.149   0.029
 4533TIP3    H137052   2.502   1.110   0.109
 4533TIP3    H237053   2.493   1.088  -0.041
 4534TIP3   OH237054   2.649   1.146   1.730
 4534TIP3    H137055   2.642   1.206   1.655
 4534TIP3    H237056   2.682   1.065   1.692
 4535TIP3   OH237057   3.204   1.189   1.473
 4535TIP3    H137058   3.207   1.284   1.466
 4535TIP3    H237059   3.112   1.169   1.487
 4536TIP3   OH237060   2.109   0.836   1.782
 4536TIP3    H137061   2.173   0.777   1.743
 4536TIP3    H237062   2.069   0.786   1.853
 4537TIP3   OH237063   2.553   0.998   0.247
 4537TIP3    H137064   2.499   0.956   0.314
 4537TIP3    H237065   2.595   0.925   0.201
 4538TIP3   OH237066   2.480   0.796   1.470
 4538TIP3    H137067   2.408   0.859   1.466
 4538TIP3    H237068   2.542   0.827   1.404
 4539TIP3   OH237069   2.692   0.828   0.073
 4539TIP3    H137070   2.701   0.855  -0.019
 4539TIP3    H237071   2.781   0.807   0.101
 4540TIP3   OH237072   3.571   1.084   8.474
 4540TIP3    H137073   3.544   1.089   8.382
 4540TIP3    H237074   3.610   1.170   8.492
 4541TIP3   OH237075   2.594   0.456   1.619
 4541TIP3    H137076   2.605   0.363   1.598
 4541TIP3    H237077   2.660   0.473   1.687
 4542TIP3   OH237078   2.553   0.390   1.317
 4542TIP3    H137079   2.615   0.431   1.256
 4542TIP3    H237080   2.476   0.370   1.263
 4543TIP3   OH237081   2.677   0.861   1.290
 4543TIP3    H137082   2.754   0.882   1.343
 4543TIP3    H237083   2.646   0.945   1.257
 4544TIP3   OH237084   3.168   0.661   1.873
 4544TIP3    H137085   3.171   0.580   1.822
 4544TIP3    H237086   3.222   0.643   1.950
 4545TIP3   OH237087   3.285   0.940   1.669
 4545TIP3    H137088   3.203   0.959   1.715
 4545TIP3    H237089   3.345   0.910   1.737
 4546TIP3   OH237090   2.364   0.609   1.743
 4546TIP3    H137091   2.296   0.542   1.754
 4546TIP3    H237092   2.446   0.562   1.757
 4547TIP3   OH237093   2.610   0.109   1.304
 4547TIP3    H137094   2.600   0.202   1.322
 4547TIP3    H237095   2.531   0.084   1.257
 4548TIP3   OH237096   2.792   0.467   1.845
 4548TIP3    H137097   2.856   0.456   1.916
 4548TIP3    H237098   2.707   0.469   1.889
 4549TIP3   OH237099   3.062   0.435   1.698
 4549TIP3    H137100   2.973   0.437   1.733
 4549TIP3    H237101   3.112   0.384   1.762
 4550TIP3   OH237102   3.185   0.310   1.912
 4550TIP3    H137103   3.186   0.218   1.887
 4550TIP3    H237104   3.162   0.310   2.005
 4551TIP3   OH237105   2.173   0.414   1.761
 4551TIP3    H137106   2.180   0.343   1.697
 4551TIP3    H237107   2.142   0.371   1.841
 4552TIP3   OH237108   2.654   0.103   1.631
 4552TIP3    H137109   2.631   0.013   1.605
 4552TIP3    H237110   2.730   0.124   1.576
 4553TIP3   OH237111   2.640   0.140   1.900
 4553TIP3    H137112   2.656   0.132   1.806
 4553TIP3    H237113   2.724   0.167   1.937
 4554TIP3   OH237114   2.629   1.847   0.196
 4554TIP3    H137115   2.717   1.881   0.181
 4554TIP3    H237116   2.570   1.919   0.169
 4555TIP3   OH237117   2.015   1.337   0.097
 4555TIP3    H137118   2.109   1.337   0.117
 4555TIP3    H237119   2.011   1.316   0.004
 4556TIP3   OH237120   1.895   1.828   0.642
 4556TIP3    H137121   1.835   1.795   0.575
 4556TIP3    H237122   1.912   1.752   0.698
 4557TIP3   OH237123   1.975   1.617   0.805
 4557TIP3    H137124   1.941   1.544   0.857
 4557TIP3    H237125   2.021   1.672   0.869
 4558TIP3   OH237126   3.740   1.760   1.139
 4558TIP3    H137127   3.751   1.845   1.181
 4558TIP3    H237128   3.818   1.750   1.084
 4559TIP3   OH237129   3.707   1.717   1.472
 4559TIP3    H137130   3.646   1.685   1.539
 4559TIP3    H237131   3.782   1.749   1.521
 4560TIP3   OH237132   3.516   1.301   1.834
 4560TIP3    H137133   3.438   1.355   1.840
 4560TIP3    H237134   3.580   1.344   1.891
 4561TIP3   OH237135   3.656   1.113   0.407
 4561TIP3    H137136   3.730   1.174   0.408
 4561TIP3    H237137   3.673   1.053   0.480
 4562TIP3   OH237138   3.709   0.928   0.606
 4562TIP3    H137139   3.629   0.889   0.642
 4562TIP3    H237140   3.766   0.940   0.682
 4563TIP3   OH237141   3.618   1.192   1.140
 4563TIP3    H137142   3.689   1.136   1.107
 4563TIP3    H237143   3.593   1.246   1.065
 4564TIP3   OH237144   3.521   1.503   1.317
 4564TIP3    H137145   3.453   1.541   1.372
 4564TIP3    H237146   3.476   1.473   1.238
 4565TIP3   OH237147   3.682   0.933   0.200
 4565TIP3    H137148   3.632   0.971   0.128
 4565TIP3    H237149   3.670   0.995   0.272
 4566TIP3   OH237150   3.461   0.620   0.088
 4566TIP3    H137151   3.536   0.644   0.033
 4566TIP3    H237152   3.446   0.528   0.069
 4567TIP3   OH237153   3.469   0.803   0.677
 4567TIP3    H137154   3.462   0.714   0.641
 4567TIP3    H237155   3.433   0.796   0.765
 4568TIP3   OH237156   1.940   1.000   1.056
 4568TIP3    H137157   1.948   0.985   0.962
 4568TIP3    H237158   2.024   0.972   1.093
 4569TIP3   OH237159   3.583   0.970   1.581
 4569TIP3    H137160   3.627   0.886   1.567
 4569TIP3    H237161   3.604   0.993   1.672
 4570TIP3   OH237162   3.685   0.716   1.592
 4570TIP3    H137163   3.608   0.686   1.640
 4570TIP3    H237164   3.754   0.654   1.616
 4571TIP3   OH237165   3.420   0.352   0.032
 4571TIP3    H137166   3.499   0.332   0.082
 4571TIP3    H237167   3.349   0.347   0.096
 4572TIP3   OH237168   3.438   0.579   0.501
 4572TIP3    H137169   3.473   0.490   0.508
 4572TIP3    H237170   3.502   0.625   0.447
 4573TIP3   OH237171   3.518   0.599   1.055
 4573TIP3    H137172   3.611   0.618   1.047
 4573TIP3    H237173   3.501   0.604   1.149
 4574TIP3   OH237174   3.491   0.667   1.321
 4574TIP3    H137175   3.416   0.704   1.366
 4574TIP3    H237176   3.556   0.738   1.320
 4575TIP3   OH237177   1.965   0.553   1.653
 4575TIP3    H137178   2.042   0.510   1.690
 4575TIP3    H237179   1.899   0.484   1.647
 4576TIP3   OH237180   3.763   0.070   1.816
 4576TIP3    H137181   3.859   0.073   1.811
 4576TIP3    H237182   3.734   0.145   1.765
 4577TIP3   OH237183   3.522   0.320   0.520
 4577TIP3    H137184   3.538   0.291   0.609
 4577TIP3    H237185   3.457   0.258   0.486
 4578TIP3   OH237186   2.050   0.396   0.999
 4578TIP3    H137187   2.087   0.309   0.991
 4578TIP3    H237188   2.126   0.455   0.997
 4579TIP3   OH237189   1.881   0.670   1.051
 4579TIP3    H137190   1.953   0.676   0.988
 4579TIP3    H237191   1.903   0.734   1.119
 4580TIP3   OH237192   3.649   0.292   1.709
 4580TIP3    H137193   3.582   0.325   1.770
 4580TIP3    H237194   3.598   0.259   1.634
 4581TIP3   OH237195   3.678   0.322   0.138
 4581TIP3    H137196   3.731   0.314   0.059
 4581TIP3    H237197   3.731   0.377   0.197
 4582TIP3   OH237198   1.888   0.298   0.486
 4582TIP3    H137199   1.795   0.318   0.492
 4582TIP3    H237200   1.923   0.363   0.425
 4583TIP3   OH237201   3.385   1.762   0.675
 4583TIP3    H137202   3.471   1.756   0.634
 4583TIP3    H237203   3.399   1.817   0.752
 4584TIP3   OH237204   1.937   0.164   1.318
 4584TIP3    H137205   1.870   0.165   1.387
 4584TIP3    H237206   1.899   0.216   1.247
 4585TIP3   OH237207   2.161   1.455   1.677
 4585TIP3    H137208   2.073   1.469   1.713
 4585TIP3    H237209   2.184   1.366   1.704
 4586TIP3   OH237210   2.441   1.593   1.343
 4586TIP3    H137211   2.422   1.684   1.321
 4586TIP3    H237212   2.536   1.586   1.334
 4587TIP3   OH237213   3.550   0.145   1.473
 4587TIP3    H137214   3.517   0.151   1.383
 4587TIP3    H237215   3.554   0.051   1.491
 4588TIP3   OH237216   2.134   1.890   1.356
 4588TIP3    H137217   2.049   1.917   1.321
 4588TIP3    H237218   2.138   1.931   1.443
 4589TIP3   OH237219   2.393   1.850   1.275
 4589TIP3    H137220   2.304   1.871   1.303
 4589TIP3    H237221   2.406   1.903   1.196
 4590TIP3   OH237222   2.870   1.835   1.184
 4590TIP3    H137223   2.808   1.868   1.119
 4590TIP3    H237224   2.881   1.908   1.246
 4591TIP3   OH237225   3.091   1.686   1.255
 4591TIP3    H137226   3.016   1.741   1.233
 4591TIP3    H237227   3.164   1.748   1.265
 4592TIP3   OH237228   3.334   1.818   1.277
 4592TIP3    H137229   3.351   1.910   1.258
 4592TIP3    H237230   3.380   1.770   1.208
 4593TIP3   OH237231   2.122   1.738   1.041
 4593TIP3    H137232   2.129   1.721   1.135
 4593TIP3    H237233   2.199   1.695   1.003
 4594TIP3   OH237234   2.332   1.607   0.931
 4594TIP3    H137235   2.320   1.514   0.950
 4594TIP3    H237236   2.420   1.627   0.962
 4595TIP3   OH237237   2.590   1.631   1.038
 4595TIP3    H137238   2.599   1.541   1.009
 4595TIP3    H237239   2.628   1.632   1.126
 4596TIP3   OH237240   2.949   0.249   0.900
 4596TIP3    H137241   2.884   0.183   0.924
 4596TIP3    H237242   3.016   0.201   0.852
 4597TIP3   OH237243   3.372   0.126   0.935
 4597TIP3    H137244   3.439   0.174   0.888
 4597TIP3    H237245   3.291   0.144   0.887
 4598TIP3   OH237246   3.580   0.213   0.763
 4598TIP3    H137247   3.614   0.123   0.764
 4598TIP3    H237248   3.657   0.268   0.773
 4599TIP3   OH237249   2.136   0.133   0.673
 4599TIP3    H137250   2.044   0.142   0.647
 4599TIP3    H237251   2.153   0.039   0.668
 4600TIP3   OH237252   2.020   0.152   0.280
 4600TIP3    H137253   2.047   0.244   0.277
 4600TIP3    H237254   1.942   0.152   0.336
 4601TIP3   OH237255   2.637   0.099   0.682
 4601TIP3    H137256   2.710   0.129   0.628
 4601TIP3    H237257   2.669   0.108   0.772
 4602TIP3   OH237258   3.146   0.118   0.761
 4602TIP3    H137259   3.170   0.140   0.671
 4602TIP3    H237260   3.131   0.023   0.759
 4603TIP3   OH237261   3.333   0.146   0.421
 4603TIP3    H137262   3.248   0.190   0.427
 4603TIP3    H237263   3.312   0.053   0.417
 4604TIP3   OH237264   2.013   1.677   0.355
 4604TIP3    H137265   1.939   1.666   0.295
 4604TIP3    H237266   2.034   1.770   0.351
 4605TIP3   OH237267   2.288   0.190   0.132
 4605TIP3    H137268   2.310   0.241   0.055
 4605TIP3    H237269   2.338   0.230   0.203
 4606TIP3   OH237270   2.721   0.318   0.354
 4606TIP3    H137271   2.763   0.251   0.407
 4606TIP3    H237272   2.734   0.399   0.403
 4607TIP3   OH237273   2.900   1.910   0.168
 4607TIP3    H137274   2.979   1.954   0.137
 4607TIP3    H237275   2.913   1.818   0.145
 4608TIP3   OH237276   3.601   1.736   0.503
 4608TIP3    H137277   3.603   1.650   0.461
 4608TIP3    H237278   3.625   1.798   0.434
 4609TIP3   OH237279   2.188   0.187   1.605
 4609TIP3    H137280   2.143   0.105   1.584
 4609TIP3    H237281   2.252   0.163   1.672
 4610TIP3   OH237282   2.354   0.120   1.824
 4610TIP3    H137283   2.443   0.142   1.848
 4610TIP3    H237284   2.356   0.026   1.807
 4611TIP3   OH237285   2.252   1.801   0.129
 4611TIP3    H137286   2.174   1.806   0.184
 4611TIP3    H237287   2.263   1.707   0.111
 4612TIP3   OH237288   3.198   0.043   1.838
 4612TIP3    H137289   3.163  -0.030   1.889
 4612TIP3    H237290   3.271   0.005   1.789
 4613TIP3   OH237291   3.519   1.658   1.674
 4613TIP3    H137292   3.447   1.634   1.616
 4613TIP3    H237293   3.495   1.744   1.707
 4614TIP3   OH237294   4.978   1.004   0.683
 4614TIP3    H137295   4.969   1.093   0.716
 4614TIP3    H237296   4.899   0.990   0.630
 4615TIP3   OH237297   4.829   0.945   1.039
 4615TIP3    H137298   4.851   0.915   1.127
 4615TIP3    H237299   4.783   0.872   0.999
 4616TIP3   OH237300   4.038   0.894   1.183
 4616TIP3    H137301   4.038   0.816   1.240
 4616TIP3    H237302   4.130   0.914   1.170
 4617TIP3   OH237303   5.198   1.234   0.864
 4617TIP3    H137304   5.176   1.159   0.919
 4617TIP3    H237305   5.233   1.299   0.926
 4618TIP3   OH237306   4.175   1.339   0.983
 4618TIP3    H137307   4.150   1.251   0.953
 4618TIP3    H237308   4.266   1.329   1.010
 4619TIP3   OH237309   3.835   0.669   0.501
 4619TIP3    H137310   3.829   0.746   0.558
 4619TIP3    H237311   3.752   0.669   0.453
 4620TIP3   OH237312   3.897   0.939   0.813
 4620TIP3    H137313   3.926   0.851   0.836
 4620TIP3    H237314   3.975   0.993   0.825
 4621TIP3   OH237315   4.954   1.745   0.876
 4621TIP3    H137316   4.989   1.682   0.813
 4621TIP3    H237317   4.933   1.692   0.953
 4622TIP3   OH237318   4.681   1.188   1.070
 4622TIP3    H137319   4.723   1.110   1.033
 4622TIP3    H237320   4.742   1.220   1.136
 4623TIP3   OH237321   5.562   0.336   1.086
 4623TIP3    H137322   5.541   0.390   1.162
 4623TIP3    H237323   5.644   0.371   1.053
 4624TIP3   OH237324   5.046   0.639   1.117
 4624TIP3    H137325   5.093   0.590   1.184
 4624TIP3    H237326   5.008   0.572   1.060
 4625TIP3   OH237327   4.330   0.405   0.821
 4625TIP3    H137328   4.352   0.488   0.779
 4625TIP3    H237329   4.289   0.353   0.751
 4626TIP3   OH237330   5.121   0.481   0.686
 4626TIP3    H137331   5.165   0.451   0.766
 4626TIP3    H237332   5.187   0.532   0.640
 4627TIP3   OH237333   3.991   0.688   0.876
 4627TIP3    H137334   4.056   0.653   0.937
 4627TIP3    H237335   4.012   0.647   0.793
 4628TIP3   OH237336   4.460   0.812   0.842
 4628TIP3    H137337   4.545   0.785   0.876
 4628TIP3    H237338   4.432   0.741   0.785
 4629TIP3   OH237339   5.551   0.481   1.315
 4629TIP3    H137340   5.507   0.557   1.353
 4629TIP3    H237341   5.589   0.436   1.391
 4630TIP3   OH237342   4.204   0.348   1.224
 4630TIP3    H137343   4.172   0.413   1.162
 4630TIP3    H237344   4.140   0.349   1.296
 4631TIP3   OH237345   4.857   1.255   0.576
 4631TIP3    H137346   4.900   1.278   0.494
 4631TIP3    H237347   4.825   1.338   0.611
 4632TIP3   OH237348   4.451   1.099   1.193
 4632TIP3    H137349   4.401   1.172   1.229
 4632TIP3    H237350   4.529   1.139   1.155
 4633TIP3   OH237351   5.252   0.406   0.915
 4633TIP3    H137352   5.177   0.392   0.973
 4633TIP3    H237353   5.312   0.460   0.967
 4634TIP3   OH237354   4.170   0.528   1.014
 4634TIP3    H137355   4.230   0.579   1.068
 4634TIP3    H237356   4.227   0.484   0.951
 4635TIP3   OH237357   4.299   1.310   1.288
 4635TIP3    H137358   4.307   1.405   1.286
 4635TIP3    H237359   4.216   1.293   1.334
 4636TIP3   OH237360   3.876   1.282   0.394
 4636TIP3    H137361   3.884   1.319   0.306
 4636TIP3    H237362   3.906   1.352   0.452
 4637TIP3   OH237363   5.251   1.440   1.055
 4637TIP3    H137364   5.158   1.437   1.079
 4637TIP3    H237365   5.271   1.533   1.045
 4638TIP3   OH237366   5.259   0.207   1.201
 4638TIP3    H137367   5.327   0.205   1.133
 4638TIP3    H237368   5.301   0.172   1.279
 4639TIP3   OH237369   4.597   0.085   0.969
 4639TIP3    H137370   4.588  -0.009   0.988
 4639TIP3    H237371   4.524   0.126   1.014
 4640TIP3   OH237372   5.070   1.582   0.676
 4640TIP3    H137373   5.106   1.496   0.659
 4640TIP3    H237374   5.146   1.639   0.685
 4641TIP3   OH237375   5.184   1.344   0.613
 4641TIP3    H137376   5.219   1.279   0.552
 4641TIP3    H237377   5.191   1.302   0.699
 4642TIP3   OH237378   5.379   1.251   1.450
 4642TIP3    H137379   5.386   1.188   1.378
 4642TIP3    H237380   5.392   1.336   1.409
 4643TIP3   OH237381   4.825   0.941   0.450
 4643TIP3    H137382   4.762   1.011   0.434
 4643TIP3    H237383   4.901   0.964   0.397
 4644TIP3   OH237384   4.826   0.790   0.144
 4644TIP3    H137385   4.874   0.833   0.215
 4644TIP3    H237386   4.891   0.732   0.104
 4645TIP3   OH237387   5.554   0.897   1.274
 4645TIP3    H137388   5.488   0.966   1.283
 4645TIP3    H237389   5.607   0.925   1.199
 4646TIP3   OH237390   5.190   0.959   0.521
 4646TIP3    H137391   5.119   0.976   0.583
 4646TIP3    H237392   5.257   0.915   0.572
 4647TIP3   OH237393   5.135   0.782   1.448
 4647TIP3    H137394   5.145   0.839   1.524
 4647TIP3    H237395   5.070   0.826   1.393
 4648TIP3   OH237396   4.319   1.001   0.694
 4648TIP3    H137397   4.306   0.962   0.607
 4648TIP3    H237398   4.374   0.938   0.740
 4649TIP3   OH237399   4.466   1.354   0.968
 4649TIP3    H137400   4.471   1.359   0.872
 4649TIP3    H237401   4.541   1.302   0.994
 4650TIP3   OH237402   4.307   0.917   1.050
 4650TIP3    H137403   4.365   0.889   0.979
 4650TIP3    H237404   4.360   0.979   1.101
 4651TIP3   OH237405   4.994   1.442   1.148
 4651TIP3    H137406   4.989   1.509   1.215
 4651TIP3    H237407   4.950   1.366   1.186
 4652TIP3   OH237408   4.410   1.266   1.549
 4652TIP3    H137409   4.392   1.353   1.583
 4652TIP3    H237410   4.403   1.275   1.454
 4653TIP3   OH237411   5.060   0.890   0.290
 4653TIP3    H137412   5.109   0.913   0.369
 4653TIP3    H237413   5.102   0.938   0.220
 4654TIP3   OH237414   4.162   0.959   1.490
 4654TIP3    H137415   4.171   1.025   1.558
 4654TIP3    H237416   4.069   0.938   1.490
 4655TIP3   OH237417   4.804   1.532   0.621
 4655TIP3    H137418   4.894   1.543   0.652
 4655TIP3    H237419   4.783   1.616   0.581
 4656TIP3   OH237420   4.279   1.513   1.602
 4656TIP3    H137421   4.269   1.535   1.510
 4656TIP3    H237422   4.191   1.493   1.632
 4657TIP3   OH237423   5.475   0.062   0.318
 4657TIP3    H137424   5.392   0.093   0.352
 4657TIP3    H237425   5.506   0.132   0.260
 4658TIP3   OH237426   4.251   0.911   0.431
 4658TIP3    H137427   4.189   0.977   0.401
 4658TIP3    H237428   4.201   0.829   0.429
 4659TIP3   OH237429   5.526   1.447   0.124
 4659TIP3    H137430   5.547   1.540   0.129
 4659TIP3    H237431   5.610   1.403   0.112
 4660TIP3   OH237432   3.854   1.134   1.358
 4660TIP3    H137433   3.846   1.107   1.267
 4660TIP3    H237434   3.867   1.053   1.407
 4661TIP3   OH237435   3.835   1.453   1.094
 4661TIP3    H137436   3.834   1.359   1.081
 4661TIP3    H237437   3.927   1.474   1.110
 4662TIP3   OH237438   4.650   1.474   1.490
 4662TIP3    H137439   4.686   1.536   1.554
 4662TIP3    H237440   4.686   1.389   1.516
 4663TIP3   OH237441   4.783   1.788   0.467
 4663TIP3    H137442   4.783   1.817   0.376
 4663TIP3    H237443   4.768   1.868   0.517
 4664TIP3   OH237444   4.142   1.681   0.672
 4664TIP3    H137445   4.168   1.651   0.759
 4664TIP3    H237446   4.090   1.609   0.636
 4665TIP3   OH237447   5.097   1.752   0.154
 4665TIP3    H137448   5.165   1.688   0.133
 4665TIP3    H237449   5.095   1.754   0.250
 4666TIP3   OH237450   5.057   1.746   0.432
 4666TIP3    H137451   4.963   1.750   0.450
 4666TIP3    H237452   5.093   1.690   0.501
 4667TIP3   OH237453   5.294   0.623   1.635
 4667TIP3    H137454   5.266   0.685   1.568
 4667TIP3    H237455   5.318   0.544   1.587
 4668TIP3   OH237456   4.060   1.307   1.436
 4668TIP3    H137457   4.092   1.270   1.518
 4668TIP3    H237458   3.995   1.244   1.406
 4669TIP3   OH237459   4.357   0.215   1.033
 4669TIP3    H137460   4.348   0.274   0.958
 4669TIP3    H237461   4.306   0.256   1.103
 4670TIP3   OH237462   4.785   0.168   1.456
 4670TIP3    H137463   4.863   0.175   1.512
 4670TIP3    H237464   4.711   0.171   1.517
 4671TIP3   OH237465   5.058   0.516   1.434
 4671TIP3    H137466   5.016   0.488   1.515
 4671TIP3    H237467   5.086   0.606   1.451
 4672TIP3   OH237468   5.179   1.035   0.089
 4672TIP3    H137469   5.161   1.127   0.106
 4672TIP3    H237470   5.272   1.033   0.066
 4673TIP3   OH237471   4.780   0.351   0.148
 4673TIP3    H137472   4.738   0.327   0.231
 4673TIP3    H237473   4.707   0.375   0.090
 4674TIP3   OH237474   4.346   0.667   1.167
 4674TIP3    H137475   4.334   0.682   1.261
 4674TIP3    H237476   4.340   0.755   1.128
 4675TIP3   OH237477   4.336   0.634   0.667
 4675TIP3    H137478   4.241   0.630   0.661
 4675TIP3    H237479   4.366   0.622   0.577
 4676TIP3   OH237480   4.868   0.671   0.498
 4676TIP3    H137481   4.856   0.765   0.493
 4676TIP3    H237482   4.950   0.654   0.453
 4677TIP3   OH237483   4.801   0.702   1.688
 4677TIP3    H137484   4.752   0.628   1.725
 4677TIP3    H237485   4.886   0.698   1.731
 4678TIP3   OH237486   4.929   0.640   0.829
 4678TIP3    H137487   4.967   0.725   0.804
 4678TIP3    H237488   4.979   0.576   0.778
 4679TIP3   OH237489   4.071   0.656   1.328
 4679TIP3    H137490   4.143   0.684   1.385
 4679TIP3    H237491   4.049   0.568   1.359
 4680TIP3   OH237492   4.504   0.402   0.082
 4680TIP3    H137493   4.471   0.358   0.160
 4680TIP3    H237494   4.475   0.493   0.091
 4681TIP3   OH237495   3.813   0.357   0.760
 4681TIP3    H137496   3.842   0.381   0.848
 4681TIP3    H237497   3.894   0.350   0.709
 4682TIP3   OH237498   3.858   0.484   0.278
 4682TIP3    H137499   3.909   0.518   0.205
 4682TIP3    H237500   3.859   0.553   0.344
 4683TIP3   OH237501   4.901   0.812   1.271
 4683TIP3    H137502   4.955   0.756   1.215
 4683TIP3    H237503   4.850   0.751   1.324
 4684TIP3   OH237504   4.615   0.421   0.765
 4684TIP3    H137505   4.534   0.403   0.813
 4684TIP3    H237506   4.684   0.388   0.822
 4685TIP3   OH237507   4.066   0.572   0.636
 4685TIP3    H137508   3.990   0.587   0.580
 4685TIP3    H237509   4.100   0.487   0.608
 4686TIP3   OH237510   4.394   0.588   0.394
 4686TIP3    H137511   4.485   0.585   0.425
 4686TIP3    H237512   4.400   0.625   0.306
 4687TIP3   OH237513   5.000   0.379   1.032
 4687TIP3    H137514   4.974   0.359   1.122
 4687TIP3    H237515   4.926   0.348   0.979
 4688TIP3   OH237516   4.393   0.655   0.119
 4688TIP3    H137517   4.322   0.659   0.055
 4688TIP3    H237518   4.460   0.714   0.085
 4689TIP3   OH237519   4.112   1.176   1.685
 4689TIP3    H137520   4.189   1.161   1.740
 4689TIP3    H237521   4.040   1.139   1.736
 4690TIP3   OH237522   4.693   0.708   0.952
 4690TIP3    H137523   4.770   0.673   0.907
 4690TIP3    H237524   4.677   0.646   1.023
 4691TIP3   OH237525   4.189   0.328   0.581
 4691TIP3    H137526   4.139   0.249   0.602
 4691TIP3    H237527   4.236   0.305   0.501
 4692TIP3   OH237528   4.610   0.565   1.182
 4692TIP3    H137529   4.534   0.623   1.185
 4692TIP3    H237530   4.663   0.590   1.257
 4693TIP3   OH237531   4.641   1.134   0.364
 4693TIP3    H137532   4.566   1.095   0.318
 4693TIP3    H237533   4.606   1.162   0.448
 4694TIP3   OH237534   5.361   1.099   1.218
 4694TIP3    H137535   5.415   1.150   1.156
 4694TIP3    H237536   5.282   1.078   1.169
 4695TIP3   OH237537   5.041   0.362   0.246
 4695TIP3    H137538   4.951   0.365   0.211
 4695TIP3    H237539   5.064   0.453   0.262
 4696TIP3   OH237540   4.782   1.226   1.531
 4696TIP3    H137541   4.757   1.172   1.606
 4696TIP3    H237542   4.861   1.272   1.559
 4697TIP3   OH237543   5.098   0.616   0.343
 4697TIP3    H137544   5.177   0.613   0.397
 4697TIP3    H237545   5.095   0.706   0.309
 4698TIP3   OH237546   4.136   1.070   0.888
 4698TIP3    H137547   4.195   1.060   0.814
 4698TIP3    H237548   4.175   1.018   0.958
 4699TIP3   OH237549   4.866   1.268   0.268
 4699TIP3    H137550   4.826   1.353   0.283
 4699TIP3    H237551   4.800   1.205   0.297
 4700TIP3   OH237552   3.888   0.906   1.503
 4700TIP3    H137553   3.914   0.876   1.590
 4700TIP3    H237554   3.820   0.845   1.476
 4701TIP3   OH237555   4.573   0.850   1.642
 4701TIP3    H137556   4.514   0.775   1.633
 4701TIP3    H237557   4.659   0.811   1.659
 4702TIP3   OH237558   5.006   1.405   1.536
 4702TIP3    H137559   4.996   1.484   1.483
 4702TIP3    H237560   5.067   1.430   1.605
 4703TIP3   OH237561   5.518   0.652   0.319
 4703TIP3    H137562   5.460   0.641   0.244
 4703TIP3    H237563   5.564   0.734   0.302
 4704TIP3   OH237564   5.601   1.173   1.605
 4704TIP3    H137565   5.521   1.217   1.578
 4704TIP3    H237566   5.655   1.170   1.525
 4705TIP3   OH237567   5.386   1.498   0.362
 4705TIP3    H137568   5.347   1.421   0.402
 4705TIP3    H237569   5.431   1.465   0.284
 4706TIP3   OH237570   5.129   1.018   1.029
 4706TIP3    H137571   5.034   1.004   1.029
 4706TIP3    H237572   5.165   0.936   0.994
 4707TIP3   OH237573   4.401   1.432   0.690
 4707TIP3    H137574   4.433   1.515   0.656
 4707TIP3    H237575   4.315   1.420   0.649
 4708TIP3   OH237576   3.960   0.908   0.157
 4708TIP3    H137577   3.999   0.965   0.223
 4708TIP3    H237578   3.866   0.909   0.176
 4709TIP3   OH237579   4.491   1.192   0.584
 4709TIP3    H137580   4.480   1.276   0.627
 4709TIP3    H237581   4.436   1.131   0.634
 4710TIP3   OH237582   4.589   1.623   1.277
 4710TIP3    H137583   4.666   1.677   1.261
 4710TIP3    H237584   4.615   1.566   1.349
 4711TIP3   OH237585   4.399   1.692   0.564
 4711TIP3    H137586   4.310   1.705   0.595
 4711TIP3    H237587   4.449   1.764   0.604
 4712TIP3   OH237588   4.876   1.216   1.270
 4712TIP3    H137589   4.833   1.219   1.356
 4712TIP3    H237590   4.954   1.162   1.284
 4713TIP3   OH237591   5.134   1.296   0.177
 4713TIP3    H137592   5.183   1.271   0.255
 4713TIP3    H237593   5.042   1.294   0.205
 4714TIP3   OH237594   5.583   1.715   0.147
 4714TIP3    H137595   5.603   1.746   0.059
 4714TIP3    H237596   5.533   1.786   0.187
 4715TIP3   OH237597   4.016   0.396   1.426
 4715TIP3    H137598   3.941   0.437   1.469
 4715TIP3    H237599   4.032   0.317   1.478
 4716TIP3   OH237600   5.281   1.185   0.390
 4716TIP3    H137601   5.241   1.108   0.432
 4716TIP3    H237602   5.375   1.166   0.390
 4717TIP3   OH237603   3.969   1.553   1.335
 4717TIP3    H137604   4.009   1.474   1.371
 4717TIP3    H237605   4.029   1.624   1.360
 4718TIP3   OH237606   4.435   1.379   0.271
 4718TIP3    H137607   4.516   1.337   0.299
 4718TIP3    H237608   4.453   1.473   0.277
 4719TIP3   OH237609   4.076   1.099   0.321
 4719TIP3    H137610   4.007   1.147   0.367
 4719TIP3    H237611   4.128   1.168   0.278
 4720TIP3   OH237612   4.896   0.357   1.284
 4720TIP3    H137613   4.961   0.401   1.337
 4720TIP3    H237614   4.854   0.295   1.343
 4721TIP3   OH237615   5.021   0.288   0.519
 4721TIP3    H137616   5.016   0.332   0.435
 4721TIP3    H237617   5.045   0.356   0.581
 4722TIP3   OH237618   4.717   1.490   0.314
 4722TIP3    H137619   4.675   1.549   0.377
 4722TIP3    H237620   4.763   1.548   0.253
 4723TIP3   OH237621   4.633   0.540   0.518
 4723TIP3    H137622   4.715   0.589   0.515
 4723TIP3    H237623   4.628   0.507   0.608
 4724TIP3   OH237624   4.764   0.618   1.415
 4724TIP3    H137625   4.771   0.647   1.506
 4724TIP3    H237626   4.808   0.533   1.414
 4725TIP3   OH237627   4.763   0.215   0.591
 4725TIP3    H137628   4.761   0.258   0.677
 4725TIP3    H237629   4.854   0.225   0.563
 4726TIP3   OH237630   4.459   1.655   0.296
 4726TIP3    H137631   4.487   1.742   0.267
 4726TIP3    H237632   4.439   1.666   0.389
 4727TIP3   OH237633   4.342   0.324   0.326
 4727TIP3    H137634   4.341   0.417   0.351
 4727TIP3    H237635   4.428   0.293   0.352
 4728TIP3   OH237636   5.306   0.399   1.470
 4728TIP3    H137637   5.221   0.425   1.434
 4728TIP3    H237638   5.359   0.378   1.393
 4729TIP3   OH237639   5.213   0.763   0.933
 4729TIP3    H137640   5.140   0.729   0.985
 4729TIP3    H237641   5.290   0.719   0.970
 4730TIP3   OH237642   4.177   1.327   0.184
 4730TIP3    H137643   4.250   1.365   0.233
 4730TIP3    H237644   4.219   1.276   0.114
 4731TIP3   OH237645   3.985   0.638   0.078
 4731TIP3    H137646   3.985   0.731   0.101
 4731TIP3    H237647   3.999   0.637  -0.017
 4732TIP3   OH237648   5.332   1.709   1.066
 4732TIP3    H137649   5.324   1.776   0.999
 4732TIP3    H237650   5.425   1.706   1.086
 4733TIP3   OH237651   4.050   0.170   0.923
 4733TIP3    H137652   4.049   0.158   0.828
 4733TIP3    H237653   4.044   0.081   0.958
 4734TIP3   OH237654   3.940   1.508   0.558
 4734TIP3    H137655   3.893   1.537   0.637
 4734TIP3    H237656   3.919   1.574   0.492
 4735TIP3   OH237657   3.884   1.756   1.700
 4735TIP3    H137658   3.938   1.754   1.779
 4735TIP3    H237659   3.849   1.667   1.692
 4736TIP3   OH237660   4.359   1.649   1.824
 4736TIP3    H137661   4.428   1.594   1.862
 4736TIP3    H237662   4.335   1.603   1.743
 4737TIP3   OH237663   4.850   1.633   0.126
 4737TIP3    H137664   4.822   1.593   0.044
 4737TIP3    H237665   4.943   1.654   0.112
 4738TIP3   OH237666   5.240   1.536   0.056
 4738TIP3    H137667   5.207   1.460   0.103
 4738TIP3    H237668   5.335   1.525   0.056
 4739TIP3   OH237669   3.876   1.137   1.820
 4739TIP3    H137670   3.810   1.078   1.856
 4739TIP3    H237671   3.832   1.178   1.746
 4740TIP3   OH237672   4.321   1.149   0.037
 4740TIP3    H137673   4.365   1.111   0.113
 4740TIP3    H237674   4.353   1.098  -0.038
 4741TIP3   OH237675   4.537   1.109   1.731
 4741TIP3    H137676   4.502   1.162   1.660
 4741TIP3    H237677   4.552   1.023   1.693
 4742TIP3   OH237678   5.115   1.163   1.466
 4742TIP3    H137679   5.209   1.184   1.462
 4742TIP3    H237680   5.073   1.245   1.490
 4743TIP3   OH237681   3.991   0.810   1.737
 4743TIP3    H137682   4.062   0.746   1.728
 4743TIP3    H237683   3.989   0.830   1.831
 4744TIP3   OH237684   4.435   0.992   0.235
 4744TIP3    H137685   4.385   0.958   0.309
 4744TIP3    H237686   4.487   0.917   0.204
 4745TIP3   OH237687   4.328   0.754   1.428
 4745TIP3    H137688   4.275   0.825   1.462
 4745TIP3    H237689   4.410   0.795   1.402
 4746TIP3   OH237690   4.585   0.824   0.022
 4746TIP3    H137691   4.617   0.814  -0.067
 4746TIP3    H237692   4.663   0.820   0.077
 4747TIP3   OH237693   4.905   1.065   1.764
 4747TIP3    H137694   4.993   1.067   1.803
 4747TIP3    H237695   4.897   0.976   1.728
 4748TIP3   OH237696   5.452   1.082   0.006
 4748TIP3    H137697   5.428   1.096  -0.086
 4748TIP3    H237698   5.481   1.168   0.036
 4749TIP3   OH237699   4.427   0.538   1.566
 4749TIP3    H137700   4.443   0.470   1.501
 4749TIP3    H237701   4.388   0.610   1.517
 4750TIP3   OH237702   4.457   0.384   1.334
 4750TIP3    H137703   4.515   0.431   1.274
 4750TIP3    H237704   4.371   0.386   1.291
 4751TIP3   OH237705   4.547   0.869   1.317
 4751TIP3    H137706   4.629   0.886   1.363
 4751TIP3    H237707   4.522   0.955   1.282
 4752TIP3   OH237708   5.042   0.674   1.823
 4752TIP3    H137709   5.100   0.599   1.809
 4752TIP3    H237710   5.099   0.742   1.860
 4753TIP3   OH237711   5.171   0.965   1.647
 4753TIP3    H137712   5.145   1.039   1.592
 4753TIP3    H237713   5.266   0.961   1.639
 4754TIP3   OH237714   4.183   0.605   1.729
 4754TIP3    H137715   4.189   0.581   1.821
 4754TIP3    H237716   4.269   0.582   1.693
 4755TIP3   OH237717   4.482   0.113   1.313
 4755TIP3    H137718   4.482   0.207   1.333
 4755TIP3    H237719   4.390   0.091   1.302
 4756TIP3   OH237720   4.641   0.479   1.732
 4756TIP3    H137721   4.601   0.456   1.816
 4756TIP3    H237722   4.567   0.498   1.675
 4757TIP3   OH237723   4.887   0.405   1.621
 4757TIP3    H137724   4.802   0.424   1.661
 4757TIP3    H237725   4.939   0.369   1.693
 4758TIP3   OH237726   5.011   0.301   1.837
 4758TIP3    H137727   5.047   0.213   1.852
 4758TIP3    H237728   5.015   0.343   1.923
 4759TIP3   OH237729   4.016   0.356   1.849
 4759TIP3    H137730   4.041   0.324   1.762
 4759TIP3    H237731   4.017   0.279   1.905
 4760TIP3   OH237732   4.570   0.094   1.606
 4760TIP3    H137733   4.587   0.029   1.674
 4760TIP3    H237734   4.479   0.079   1.581
 4761TIP3   OH237735   4.540   1.880   0.163
 4761TIP3    H137736   4.630   1.900   0.190
 4761TIP3    H237737   4.543   1.885   0.067
 4762TIP3   OH237738   3.906   1.339   0.113
 4762TIP3    H137739   3.998   1.349   0.135
 4762TIP3    H237740   3.906   1.303   0.024
 4763TIP3   OH237741   3.792   1.828   0.678
 4763TIP3    H137742   3.736   1.792   0.610
 4763TIP3    H237743   3.813   1.754   0.734
 4764TIP3   OH237744   3.857   1.610   0.832
 4764TIP3    H137745   3.816   1.543   0.886
 4764TIP3    H237746   3.921   1.651   0.890
 4765TIP3   OH237747   5.600   1.726   1.130
 4765TIP3    H137748   5.594   1.718   1.225
 4765TIP3    H237749   5.667   1.793   1.116
 4766TIP3   OH237750   5.555   1.676   1.396
 4766TIP3    H137751   5.501   1.602   1.366
 4766TIP3    H237752   5.560   1.664   1.491
 4767TIP3   OH237753   5.505   1.264   1.964
 4767TIP3    H137754   5.452   1.264   2.044
 4767TIP3    H237755   5.593   1.288   1.993
 4768TIP3   OH237756   5.545   1.100   0.412
 4768TIP3    H137757   5.615   1.164   0.413
 4768TIP3    H237758   5.561   1.045   0.489
 4769TIP3   OH237759   5.596   0.920   0.618
 4769TIP3    H137760   5.513   0.894   0.659
 4769TIP3    H237761   5.653   0.941   0.692
 4770TIP3   OH237762   5.542   1.228   1.059
 4770TIP3    H137763   5.614   1.165   1.065
 4770TIP3    H237764   5.585   1.313   1.052
 4771TIP3   OH237765   5.374   1.487   1.306
 4771TIP3    H137766   5.294   1.532   1.333
 4771TIP3    H237767   5.354   1.455   1.218
 4772TIP3   OH237768   5.579   0.917   0.210
 4772TIP3    H137769   5.522   0.953   0.142
 4772TIP3    H237770   5.566   0.974   0.285
 4773TIP3   OH237771   5.358   0.618   0.096
 4773TIP3    H137772   5.433   0.641   0.041
 4773TIP3    H237773   5.344   0.525   0.081
 4774TIP3   OH237774   5.349   0.811   0.692
 4774TIP3    H137775   5.339   0.725   0.651
 4774TIP3    H237776   5.305   0.802   0.776
 4775TIP3   OH237777   3.828   1.026   1.072
 4775TIP3    H137778   3.833   1.000   0.980
 4775TIP3    H237779   3.902   0.982   1.114
 4776TIP3   OH237780   5.431   0.949   1.567
 4776TIP3    H137781   5.477   0.872   1.599
 4776TIP3    H237782   5.483   1.023   1.599
 4777TIP3   OH237783   5.561   0.725   1.655
 4777TIP3    H137784   5.477   0.697   1.692
 4777TIP3    H237785   5.624   0.661   1.686
 4778TIP3   OH237786   5.317   0.358   0.021
 4778TIP3    H137787   5.338   0.265   0.005
 4778TIP3    H237788   5.230   0.370  -0.016
 4779TIP3   OH237789   5.324   0.595   0.509
 4779TIP3    H137790   5.344   0.502   0.518
 4779TIP3    H237791   5.395   0.629   0.453
 4780TIP3   OH237792   5.398   0.605   1.056
 4780TIP3    H137793   5.491   0.622   1.041
 4780TIP3    H237794   5.385   0.621   1.149
 4781TIP3   OH237795   5.368   0.699   1.315
 4781TIP3    H137796   5.294   0.740   1.360
 4781TIP3    H237797   5.435   0.767   1.312
 4782TIP3   OH237798   3.834   0.482   1.627
 4782TIP3    H137799   3.905   0.491   1.691
 4782TIP3    H237800   3.776   0.416   1.665
 4783TIP3   OH237801   5.609   0.102   1.796
 4783TIP3    H137802   5.647   0.134   1.714
 4783TIP3    H237803   5.516   0.126   1.790
 4784TIP3   OH237804   5.377   0.333   0.529
 4784TIP3    H137805   5.417   0.297   0.608
 4784TIP3    H237806   5.329   0.260   0.490
 4785TIP3   OH237807   3.925   0.392   1.011
 4785TIP3    H137808   3.966   0.307   0.995
 4785TIP3    H237809   3.998   0.453   1.022
 4786TIP3   OH237810   3.783   0.681   1.069
 4786TIP3    H137811   3.849   0.680   1.000
 4786TIP3    H237812   3.830   0.656   1.148
 4787TIP3   OH237813   5.401   0.266   1.691
 4787TIP3    H137814   5.343   0.318   1.635
 4787TIP3    H237815   5.487   0.275   1.652
 4788TIP3   OH237816   5.569   0.281   0.178
 4788TIP3    H137817   5.511   0.322   0.114
 4788TIP3    H237818   5.612   0.354   0.222
 4789TIP3   OH237819   3.795   0.265   0.441
 4789TIP3    H137820   3.709   0.285   0.478
 4789TIP3    H237821   3.820   0.344   0.394
 4790TIP3   OH237822   5.272   1.757   0.668
 4790TIP3    H137823   5.352   1.748   0.616
 4790TIP3    H237824   5.300   1.805   0.746
 4791TIP3   OH237825   3.801   0.147   1.326
 4791TIP3    H137826   3.751   0.179   1.402
 4791TIP3    H237827   3.780   0.208   1.256
 4792TIP3   OH237828   4.042   1.449   1.732
 4792TIP3    H137829   3.947   1.456   1.721
 4792TIP3    H237830   4.059   1.355   1.730
 4793TIP3   OH237831   4.316   1.583   1.332
 4793TIP3    H137832   4.302   1.672   1.299
 4793TIP3    H237833   4.412   1.575   1.337
 4794TIP3   OH237834   4.755   1.694   1.633
 4794TIP3    H137835   4.775   1.665   1.722
 4794TIP3    H237836   4.829   1.748   1.608
 4795TIP3   OH237837   4.976   1.855   1.592
 4795TIP3    H137838   5.053   1.816   1.552
 4795TIP3    H237839   5.007   1.889   1.676
 4796TIP3   OH237840   5.395   0.104   1.420
 4796TIP3    H137841   5.350   0.118   1.503
 4796TIP3    H237842   5.482   0.142   1.433
 4797TIP3   OH237843   4.034   1.850   1.334
 4797TIP3    H137844   3.959   1.902   1.305
 4797TIP3    H237845   4.052   1.881   1.423
 4798TIP3   OH237846   4.294   1.842   1.248
 4798TIP3    H137847   4.205   1.861   1.279
 4798TIP3    H237848   4.311   1.908   1.181
 4799TIP3   OH237849   4.786   1.805   1.188
 4799TIP3    H137850   4.719   1.842   1.130
 4799TIP3    H237851   4.806   1.876   1.249
 4800TIP3   OH237852   5.000   1.664   1.313
 4800TIP3    H137853   4.927   1.708   1.269
 4800TIP3    H237854   5.072   1.726   1.308
 4801TIP3   OH237855   5.204   1.851   1.273
 4801TIP3    H137856   5.236   1.941   1.265
 4801TIP3    H237857   5.253   1.801   1.208
 4802TIP3   OH237858   4.007   1.729   1.051
 4802TIP3    H137859   4.029   1.743   1.143
 4802TIP3    H237860   4.084   1.686   1.015
 4803TIP3   OH237861   4.212   1.604   0.928
 4803TIP3    H137862   4.201   1.510   0.941
 4803TIP3    H237863   4.301   1.622   0.958
 4804TIP3   OH237864   4.468   1.624   1.033
 4804TIP3    H137865   4.478   1.532   1.007
 4804TIP3    H237866   4.504   1.628   1.121
 4805TIP3   OH237867   4.798   0.252   0.881
 4805TIP3    H137868   4.742   0.190   0.927
 4805TIP3    H237869   4.876   0.202   0.858
 4806TIP3   OH237870   5.289   0.111   0.903
 4806TIP3    H137871   5.340   0.191   0.890
 4806TIP3    H237872   5.202   0.142   0.930
 4807TIP3   OH237873   5.512   0.219   0.732
 4807TIP3    H137874   5.528   0.134   0.772
 4807TIP3    H237875   5.564   0.281   0.784
 4808TIP3   OH237876   4.021   0.122   0.647
 4808TIP3    H137877   3.942   0.129   0.594
 4808TIP3    H237878   4.035   0.027   0.656
 4809TIP3   OH237879   3.918   0.098   0.257
 4809TIP3    H137880   3.990   0.154   0.229
 4809TIP3    H237881   3.870   0.150   0.321
 4810TIP3   OH237882   4.528   0.108   0.700
 4810TIP3    H137883   4.601   0.149   0.654
 4810TIP3    H237884   4.552   0.115   0.793
 4811TIP3   OH237885   5.012   0.119   0.788
 4811TIP3    H137886   5.065   0.150   0.715
 4811TIP3    H237887   5.022   0.024   0.786
 4812TIP3   OH237888   5.217   0.154   0.382
 4812TIP3    H137889   5.199   0.202   0.301
 4812TIP3    H237890   5.148   0.182   0.443
 4813TIP3   OH237891   3.874   1.689   0.362
 4813TIP3    H137892   3.822   1.681   0.282
 4813TIP3    H237893   3.920   1.773   0.352
 4814TIP3   OH237894   4.130   0.236   0.149
 4814TIP3    H137895   4.170   0.262   0.065
 4814TIP3    H237896   4.195   0.261   0.215
 4815TIP3   OH237897   4.618   0.308   0.376
 4815TIP3    H137898   4.660   0.251   0.440
 4815TIP3    H237899   4.622   0.396   0.415
 4816TIP3   OH237900   4.812   1.889   0.210
 4816TIP3    H137901   4.891   1.936   0.186
 4816TIP3    H237902   4.824   1.801   0.174
 4817TIP3   OH237903   5.479   1.726   0.488
 4817TIP3    H137904   5.451   1.642   0.450
 4817TIP3    H237905   5.475   1.787   0.414
 4818TIP3   OH237906   4.033   0.184   1.607
 4818TIP3    H137907   3.995   0.100   1.579
 4818TIP3    H237908   4.116   0.160   1.649
 4819TIP3   OH237909   4.252   0.091   1.739
 4819TIP3    H137910   4.316   0.135   1.796
 4819TIP3    H237911   4.252   0.000   1.769
 4820TIP3   OH237912   4.105   1.823   0.052
 4820TIP3    H137913   4.056   1.831   0.134
 4820TIP3    H237914   4.167   1.752   0.068
 4821TIP3   OH237915   5.096   0.046   1.895
 4821TIP3    H137916   5.053  -0.036   1.919
 4821TIP3    H237917   5.187   0.035   1.922
 4822TIP3   OH237918   6.852   0.999   0.699
 4822TIP3    H137919   6.891   1.066   0.755
 4822TIP3    H237920   6.763   1.031   0.683
 4823TIP3   OH237921   6.694   0.936   1.021
 4823TIP3    H137922   6.728   0.909   1.106
 4823TIP3    H237923   6.641   0.862   0.991
 4824TIP3   OH237924   5.944   0.888   1.169
 4824TIP3    H137925   5.942   0.815   1.230
 4824TIP3    H237926   6.037   0.902   1.152
 4825TIP3   OH237927   7.113   1.239   0.857
 4825TIP3    H137928   7.086   1.166   0.911
 4825TIP3    H237929   7.134   1.309   0.919
 4826TIP3   OH237930   6.091   1.339   0.952
 4826TIP3    H137931   6.050   1.253   0.942
 4826TIP3    H237932   6.174   1.321   0.997
 4827TIP3   OH237933   5.718   0.669   0.555
 4827TIP3    H137934   5.686   0.759   0.565
 4827TIP3    H237935   5.661   0.618   0.613
 4828TIP3   OH237936   5.786   0.946   0.821
 4828TIP3    H137937   5.818   0.858   0.843
 4828TIP3    H237938   5.861   1.003   0.835
 4829TIP3   OH237939   6.815   1.752   0.870
 4829TIP3    H137940   6.849   1.678   0.819
 4829TIP3    H237941   6.770   1.710   0.944
 4830TIP3   OH237942   6.575   1.185   1.066
 4830TIP3    H137943   6.607   1.100   1.034
 4830TIP3    H237944   6.640   1.211   1.132
 4831TIP3   OH237945   7.420   0.373   1.121
 4831TIP3    H137946   7.442   0.420   1.202
 4831TIP3    H237947   7.439   0.436   1.051
 4832TIP3   OH237948   6.900   0.608   1.078
 4832TIP3    H137949   6.916   0.518   1.105
 4832TIP3    H237950   6.873   0.602   0.987
 4833TIP3   OH237951   6.238   0.425   0.801
 4833TIP3    H137952   6.249   0.511   0.760
 4833TIP3    H237953   6.187   0.375   0.737
 4834TIP3   OH237954   6.996   0.466   0.634
 4834TIP3    H137955   7.021   0.453   0.726
 4834TIP3    H237956   7.066   0.520   0.598
 4835TIP3   OH237957   5.891   0.696   0.879
 4835TIP3    H137958   5.954   0.659   0.939
 4835TIP3    H237959   5.915   0.661   0.793
 4836TIP3   OH237960   6.351   0.817   0.844
 4836TIP3    H137961   6.432   0.778   0.878
 4836TIP3    H237962   6.317   0.751   0.784
 4837TIP3   OH237963   7.482   0.524   1.342
 4837TIP3    H137964   7.398   0.567   1.360
 4837TIP3    H237965   7.506   0.482   1.424
 4838TIP3   OH237966   6.113   0.359   1.228
 4838TIP3    H137967   6.078   0.421   1.164
 4838TIP3    H237968   6.048   0.359   1.299
 4839TIP3   OH237969   6.789   1.249   0.542
 4839TIP3    H137970   6.776   1.264   0.448
 4839TIP3    H237971   6.744   1.323   0.584
 4840TIP3   OH237972   6.341   1.106   1.197
 4840TIP3    H137973   6.291   1.177   1.235
 4840TIP3    H237974   6.418   1.149   1.158
 4841TIP3   OH237975   7.125   0.442   0.869
 4841TIP3    H137976   7.127   0.351   0.897
 4841TIP3    H237977   7.152   0.491   0.947
 4842TIP3   OH237978   6.072   0.527   1.005
 4842TIP3    H137979   6.128   0.577   1.064
 4842TIP3    H237980   6.133   0.483   0.946
 4843TIP3   OH237981   6.191   1.311   1.304
 4843TIP3    H137982   6.200   1.406   1.304
 4843TIP3    H237983   6.103   1.295   1.338
 4844TIP3   OH237984   5.756   1.279   0.392
 4844TIP3    H137985   5.758   1.325   0.308
 4844TIP3    H237986   5.778   1.347   0.456
 4845TIP3   OH237987   7.147   1.436   1.052
 4845TIP3    H137988   7.056   1.434   1.083
 4845TIP3    H237989   7.168   1.529   1.046
 4846TIP3   OH237990   7.173   0.238   1.190
 4846TIP3    H137991   7.090   0.278   1.164
 4846TIP3    H237992   7.240   0.300   1.161
 4847TIP3   OH237993   6.472   0.110   0.936
 4847TIP3    H137994   6.473   0.019   0.965
 4847TIP3    H237995   6.397   0.149   0.980
 4848TIP3   OH237996   6.949   1.576   0.682
 4848TIP3    H137997   6.994   1.494   0.663
 4848TIP3    H237998   7.019   1.639   0.695
 4849TIP3   OH237999   7.093   1.349   0.603
 4849TIP3    H138000   7.029   1.288   0.567
 4849TIP3    H238001   7.114   1.313   0.689
 4850TIP3   OH238002   7.221   1.241   1.457
 4850TIP3    H138003   7.219   1.167   1.396
 4850TIP3    H238004   7.243   1.317   1.403
 4851TIP3   OH238005   6.729   0.937   0.417
 4851TIP3    H138006   6.652   0.992   0.405
 4851TIP3    H238007   6.793   0.993   0.461
 4852TIP3   OH238008   6.701   0.805   0.170
 4852TIP3    H138009   6.715   0.849   0.253
 4852TIP3    H238010   6.785   0.764   0.149
 4853TIP3   OH238011   7.404   0.871   1.215
 4853TIP3    H138012   7.330   0.930   1.229
 4853TIP3    H238013   7.460   0.916   1.152
 4854TIP3   OH238014   7.051   0.956   0.513
 4854TIP3    H138015   6.981   0.970   0.577
 4854TIP3    H238016   7.119   0.911   0.562
 4855TIP3   OH238017   6.999   0.746   1.447
 4855TIP3    H138018   7.018   0.802   1.523
 4855TIP3    H238019   6.937   0.797   1.394
 4856TIP3   OH238020   6.214   1.004   0.694
 4856TIP3    H138021   6.195   0.959   0.611
 4856TIP3    H238022   6.267   0.941   0.743
 4857TIP3   OH238023   6.379   1.360   0.970
 4857TIP3    H138024   6.382   1.361   0.875
 4857TIP3    H238025   6.451   1.302   0.996
 4858TIP3   OH238026   6.204   0.916   1.059
 4858TIP3    H138027   6.262   0.890   0.987
 4858TIP3    H238028   6.254   0.980   1.109
 4859TIP3   OH238029   6.899   1.432   1.160
 4859TIP3    H138030   6.877   1.509   1.213
 4859TIP3    H238031   6.851   1.361   1.201
 4860TIP3   OH238032   6.345   1.327   1.542
 4860TIP3    H138033   6.285   1.386   1.587
 4860TIP3    H238034   6.298   1.301   1.463
 4861TIP3   OH238035   6.994   0.837   0.266
 4861TIP3    H138036   7.008   0.879   0.351
 4861TIP3    H238037   7.021   0.902   0.202
 4862TIP3   OH238038   6.024   0.917   1.507
 4862TIP3    H138039   6.032   0.997   1.559
 4862TIP3    H238040   5.930   0.899   1.504
 4863TIP3   OH238041   6.693   1.505   0.612
 4863TIP3    H138042   6.779   1.532   0.646
 4863TIP3    H238043   6.649   1.587   0.590
 4864TIP3   OH238044   6.163   1.514   1.625
 4864TIP3    H138045   6.147   1.546   1.536
 4864TIP3    H238046   6.075   1.502   1.662
 4865TIP3   OH238047   7.321   0.073   0.269
 4865TIP3    H138048   7.245   0.105   0.316
 4865TIP3    H238049   7.334   0.136   0.198
 4866TIP3   OH238050   6.125   0.908   0.436
 4866TIP3    H138051   6.069   0.979   0.408
 4866TIP3    H238052   6.065   0.837   0.460
 4867TIP3   OH238053   7.386   1.493   0.112
 4867TIP3    H138054   7.426   1.578   0.131
 4867TIP3    H238055   7.461   1.433   0.104
 4868TIP3   OH238056   5.752   1.129   1.370
 4868TIP3    H138057   5.740   1.107   1.277
 4868TIP3    H238058   5.763   1.044   1.413
 4869TIP3   OH238059   5.685   1.471   1.059
 4869TIP3    H138060   5.759   1.467   1.119
 4869TIP3    H238061   5.640   1.552   1.081
 4870TIP3   OH238062   7.507   1.538   1.635
 4870TIP3    H138063   7.511   1.443   1.623
 4870TIP3    H238064   7.419   1.554   1.670
 4871TIP3   OH238065   6.585   1.450   1.500
 4871TIP3    H138066   6.591   1.530   1.554
 4871TIP3    H238067   6.500   1.413   1.522
 4872TIP3   OH238068   6.660   1.783   0.453
 4872TIP3    H138069   6.657   1.819   0.364
 4872TIP3    H238070   6.643   1.858   0.510
 4873TIP3   OH238071   6.025   1.680   0.664
 4873TIP3    H138072   6.051   1.657   0.754
 4873TIP3    H238073   5.967   1.608   0.638
 4874TIP3   OH238074   6.976   1.784   0.167
 4874TIP3    H138075   7.042   1.721   0.138
 4874TIP3    H238076   6.968   1.769   0.261
 4875TIP3   OH238077   6.932   1.736   0.437
 4875TIP3    H138078   6.837   1.743   0.449
 4875TIP3    H238079   6.961   1.682   0.510
 4876TIP3   OH238080   7.210   0.634   1.677
 4876TIP3    H138081   7.127   0.668   1.711
 4876TIP3    H238082   7.211   0.542   1.701
 4877TIP3   OH238083   5.945   1.316   1.429
 4877TIP3    H138084   5.973   1.288   1.516
 4877TIP3    H238085   5.874   1.256   1.405
 4878TIP3   OH238086   6.228   0.197   1.038
 4878TIP3    H138087   6.148   0.206   0.986
 4878TIP3    H238088   6.212   0.249   1.117
 4879TIP3   OH238089   6.637   0.140   1.439
 4879TIP3    H138090   6.678   0.054   1.433
 4879TIP3    H238091   6.554   0.131   1.391
 4880TIP3   OH238092   6.972   0.480   1.520
 4880TIP3    H138093   6.928   0.473   1.605
 4880TIP3    H238094   6.981   0.574   1.504
 4881TIP3   OH238095   7.077   1.034   0.097
 4881TIP3    H138096   7.157   1.038   0.044
 4881TIP3    H238097   7.096   1.091   0.172
 4882TIP3   OH238098   6.681   0.354   0.148
 4882TIP3    H138099   6.620   0.337   0.219
 4882TIP3    H238100   6.627   0.360   0.070
 4883TIP3   OH238101   6.233   0.665   1.175
 4883TIP3    H138102   6.208   0.670   1.267
 4883TIP3    H238103   6.227   0.755   1.144
 4884TIP3   OH238104   6.230   0.659   0.657
 4884TIP3    H138105   6.134   0.651   0.657
 4884TIP3    H238106   6.256   0.639   0.567
 4885TIP3   OH238107   6.773   0.682   0.531
 4885TIP3    H138108   6.760   0.769   0.494
 4885TIP3    H238109   6.839   0.642   0.475
 4886TIP3   OH238110   6.665   0.723   1.661
 4886TIP3    H138111   6.623   0.649   1.706
 4886TIP3    H238112   6.731   0.754   1.723
 4887TIP3   OH238113   6.833   0.694   0.814
 4887TIP3    H138114   6.818   0.788   0.803
 4887TIP3    H238115   6.823   0.658   0.726
 4888TIP3   OH238116   5.961   0.660   1.325
 4888TIP3    H138117   6.008   0.700   1.398
 4888TIP3    H238118   5.937   0.573   1.358
 4889TIP3   OH238119   6.368   0.390   0.070
 4889TIP3    H138120   6.382   0.350   0.156
 4889TIP3    H238121   6.343   0.480   0.088
 4890TIP3   OH238122   5.738   0.392   0.744
 4890TIP3    H138123   5.740   0.421   0.835
 4890TIP3    H238124   5.824   0.353   0.729
 4891TIP3   OH238125   5.742   0.448   0.323
 4891TIP3    H138126   5.811   0.489   0.271
 4891TIP3    H238127   5.695   0.521   0.363
 4892TIP3   OH238128   6.803   0.809   1.239
 4892TIP3    H138129   6.847   0.739   1.190
 4892TIP3    H238130   6.743   0.764   1.297
 4893TIP3   OH238131   6.523   0.395   0.758
 4893TIP3    H138132   6.435   0.395   0.795
 4893TIP3    H238133   6.580   0.375   0.832
 4894TIP3   OH238134   5.969   0.592   0.631
 4894TIP3    H138135   5.883   0.609   0.593
 4894TIP3    H238136   5.990   0.502   0.605
 4895TIP3   OH238137   6.293   0.580   0.400
 4895TIP3    H138138   6.385   0.581   0.428
 4895TIP3    H238139   6.295   0.614   0.311
 4896TIP3   OH238140   6.915   0.333   1.121
 4896TIP3    H138141   6.869   0.339   1.204
 4896TIP3    H238142   6.847   0.308   1.058
 4897TIP3   OH238143   6.260   0.636   0.129
 4897TIP3    H138144   6.173   0.669   0.105
 4897TIP3    H238145   6.320   0.703   0.096
 4898TIP3   OH238146   7.243   1.882   1.728
 4898TIP3    H138147   7.268   1.902   1.638
 4898TIP3    H238148   7.289   1.947   1.781
 4899TIP3   OH238149   6.010   1.157   1.662
 4899TIP3    H138150   6.077   1.165   1.730
 4899TIP3    H238151   5.928   1.146   1.711
 4900TIP3   OH238152   6.575   0.693   0.945
 4900TIP3    H138153   6.658   0.658   0.914
 4900TIP3    H238154   6.553   0.640   1.022
 4901TIP3   OH238155   6.074   0.336   0.587
 4901TIP3    H138156   6.028   0.258   0.618
 4901TIP3    H238157   6.124   0.306   0.511
 4902TIP3   OH238158   6.494   0.571   1.178
 4902TIP3    H138159   6.410   0.617   1.186
 4902TIP3    H238160   6.546   0.602   1.252
 4903TIP3   OH238161   6.529   1.119   0.367
 4903TIP3    H138162   6.452   1.083   0.322
 4903TIP3    H238163   6.494   1.152   0.450
 4904TIP3   OH238164   7.222   1.076   1.221
 4904TIP3    H138165   7.280   1.140   1.179
 4904TIP3    H238166   7.146   1.071   1.163
 4905TIP3   OH238167   6.954   0.382   0.154
 4905TIP3    H138168   6.860   0.364   0.145
 4905TIP3    H238169   6.958   0.458   0.213
 4906TIP3   OH238170   6.674   1.184   1.519
 4906TIP3    H138171   6.653   1.131   1.596
 4906TIP3    H238172   6.633   1.268   1.535
 4907TIP3   OH238173   6.968   0.582   0.347
 4907TIP3    H138174   7.049   0.573   0.398
 4907TIP3    H238175   6.975   0.668   0.307
 4908TIP3   OH238176   6.028   1.066   0.891
 4908TIP3    H138177   6.090   1.057   0.818
 4908TIP3    H238178   6.066   1.013   0.961
 4909TIP3   OH238179   6.740   1.267   0.258
 4909TIP3    H138180   6.692   1.348   0.271
 4909TIP3    H238181   6.677   1.198   0.282
 4910TIP3   OH238182   5.746   0.878   1.488
 4910TIP3    H138183   5.717   0.836   1.569
 4910TIP3    H238184   5.676   0.860   1.425
 4911TIP3   OH238185   6.455   0.903   1.624
 4911TIP3    H138186   6.387   0.857   1.673
 4911TIP3    H238187   6.533   0.850   1.636
 4912TIP3   OH238188   6.868   1.453   1.492
 4912TIP3    H138189   6.775   1.442   1.473
 4912TIP3    H238190   6.871   1.467   1.586
 4913TIP3   OH238191   7.414   0.654   0.310
 4913TIP3    H138192   7.355   0.626   0.240
 4913TIP3    H238193   7.434   0.745   0.290
 4914TIP3   OH238194   7.470   1.268   1.586
 4914TIP3    H138195   7.378   1.246   1.575
 4914TIP3    H238196   7.513   1.229   1.510
 4915TIP3   OH238197   7.340   1.462   0.388
 4915TIP3    H138198   7.264   1.417   0.424
 4915TIP3    H238199   7.329   1.457   0.293
 4916TIP3   OH238200   7.026   1.028   1.018
 4916TIP3    H138201   6.935   1.017   1.046
 4916TIP3    H238202   7.052   0.942   0.986
 4917TIP3   OH238203   6.297   1.426   0.702
 4917TIP3    H138204   6.305   1.509   0.655
 4917TIP3    H238205   6.214   1.434   0.750
 4918TIP3   OH238206   5.854   0.911   0.160
 4918TIP3    H138207   5.890   0.972   0.225
 4918TIP3    H238208   5.760   0.911   0.176
 4919TIP3   OH238209   6.390   1.193   0.589
 4919TIP3    H138210   6.368   1.279   0.624
 4919TIP3    H238211   6.329   1.133   0.632
 4920TIP3   OH238212   6.487   1.613   1.293
 4920TIP3    H138213   6.546   1.688   1.286
 4920TIP3    H238214   6.531   1.554   1.355
 4921TIP3   OH238215   6.283   1.680   0.561
 4921TIP3    H138216   6.191   1.688   0.587
 4921TIP3    H238217   6.327   1.752   0.606
 4922TIP3   OH238218   6.774   1.198   1.264
 4922TIP3    H138219   6.724   1.196   1.346
 4922TIP3    H238220   6.851   1.143   1.281
 4923TIP3   OH238221   7.011   1.341   0.177
 4923TIP3    H138222   7.062   1.288   0.239
 4923TIP3    H238223   6.920   1.319   0.196
 4924TIP3   OH238224   7.084   1.619   1.465
 4924TIP3    H138225   7.006   1.565   1.462
 4924TIP3    H238226   7.067   1.690   1.403
 4925TIP3   OH238227   7.502   1.735   0.185
 4925TIP3    H138228   7.526   1.770   0.099
 4925TIP3    H238229   7.430   1.791   0.214
 4926TIP3   OH238230   5.923   0.400   1.423
 4926TIP3    H138231   5.831   0.379   1.439
 4926TIP3    H238232   5.971   0.348   1.488
 4927TIP3   OH238233   7.148   1.153   0.338
 4927TIP3    H138234   7.105   1.096   0.402
 4927TIP3    H238235   7.241   1.147   0.360
 4928TIP3   OH238236   5.879   1.560   1.261
 4928TIP3    H138237   5.907   1.483   1.310
 4928TIP3    H238238   5.885   1.632   1.323
 4929TIP3   OH238239   6.302   1.394   0.266
 4929TIP3    H138240   6.381   1.351   0.299
 4929TIP3    H238241   6.319   1.488   0.278
 4930TIP3   OH238242   5.960   1.103   0.326
 4930TIP3    H138243   5.890   1.150   0.371
 4930TIP3    H238244   6.008   1.171   0.278
 4931TIP3   OH238245   6.781   0.365   1.360
 4931TIP3    H138246   6.849   0.389   1.424
 4931TIP3    H238247   6.734   0.293   1.400
 4932TIP3   OH238248   6.867   0.308   0.456
 4932TIP3    H138249   6.855   0.377   0.390
 4932TIP3    H238250   6.904   0.353   0.532
 4933TIP3   OH238251   6.588   1.487   0.301
 4933TIP3    H138252   6.542   1.547   0.360
 4933TIP3    H238253   6.643   1.543   0.247
 4934TIP3   OH238254   6.538   0.537   0.520
 4934TIP3    H138255   6.617   0.591   0.526
 4934TIP3    H238256   6.530   0.496   0.606
 4935TIP3   OH238257   6.660   0.628   1.392
 4935TIP3    H138258   6.661   0.657   1.483
 4935TIP3    H238259   6.699   0.540   1.394
 4936TIP3   OH238260   6.628   0.205   0.572
 4936TIP3    H138261   6.616   0.268   0.643
 4936TIP3    H238262   6.722   0.209   0.552
 4937TIP3   OH238263   6.347   1.670   0.292
 4937TIP3    H138264   6.367   1.761   0.268
 4937TIP3    H238265   6.325   1.674   0.385
 4938TIP3   OH238266   6.218   0.320   0.337
 4938TIP3    H138267   6.220   0.414   0.358
 4938TIP3    H238268   6.308   0.290   0.353
 4939TIP3   OH238269   7.198   0.333   1.460
 4939TIP3    H138270   7.127   0.390   1.491
 4939TIP3    H238271   7.171   0.308   1.371
 4940TIP3   OH238272   7.087   0.777   0.916
 4940TIP3    H138273   7.001   0.738   0.901
 4940TIP3    H238274   7.129   0.719   0.980
 4941TIP3   OH238275   6.061   1.309   0.163
 4941TIP3    H138276   6.124   1.357   0.217
 4941TIP3    H238277   6.114   1.261   0.100
 4942TIP3   OH238278   5.892   0.635   0.121
 4942TIP3    H138279   5.885   0.729   0.140
 4942TIP3    H238280   5.854   0.626   0.034
 4943TIP3   OH238281   7.243   1.698   1.071
 4943TIP3    H138282   7.232   1.767   1.006
 4943TIP3    H238283   7.338   1.695   1.087
 4944TIP3   OH238284   5.966   0.176   0.945
 4944TIP3    H138285   5.946   0.165   0.852
 4944TIP3    H238286   5.938   0.094   0.985
 4945TIP3   OH238287   5.814   1.501   0.557
 4945TIP3    H138288   5.771   1.533   0.636
 4945TIP3    H238289   5.797   1.569   0.491
 4946TIP3   OH238290   5.778   1.788   1.723
 4946TIP3    H138291   5.859   1.743   1.748
 4946TIP3    H238292   5.723   1.785   1.801
 4947TIP3   OH238293   6.330   1.669   1.787
 4947TIP3    H138294   6.372   1.604   1.844
 4947TIP3    H238295   6.267   1.618   1.736
 4948TIP3   OH238296   6.745   1.615   0.120
 4948TIP3    H138297   6.715   1.569   0.042
 4948TIP3    H238298   6.838   1.629   0.105
 4949TIP3   OH238299   6.866   1.511   1.758
 4949TIP3    H138300   6.844   1.424   1.793
 4949TIP3    H238301   6.939   1.541   1.813
 4950TIP3   OH238302   7.113   1.571   0.061
 4950TIP3    H138303   7.078   1.493   0.104
 4950TIP3    H238304   7.208   1.555   0.057
 4951TIP3   OH238305   5.781   1.117   1.814
 4951TIP3    H138306   5.790   1.022   1.824
 4951TIP3    H238307   5.707   1.128   1.754
 4952TIP3   OH238308   6.238   1.143   0.029
 4952TIP3    H138309   6.270   1.105   0.111
 4952TIP3    H238310   6.266   1.082  -0.039
 4953TIP3   OH238311   6.423   1.160   1.749
 4953TIP3    H138312   6.392   1.212   1.675
 4953TIP3    H238313   6.434   1.072   1.713
 4954TIP3   OH238314   6.964   1.132   1.490
 4954TIP3    H138315   7.041   1.189   1.497
 4954TIP3    H238316   6.890   1.187   1.515
 4955TIP3   OH238317   5.819   0.842   1.828
 4955TIP3    H138318   5.901   0.794   1.818
 4955TIP3    H238319   5.768   0.790   1.891
 4956TIP3   OH238320   6.314   0.993   0.247
 4956TIP3    H138321   6.259   0.955   0.315
 4956TIP3    H238322   6.355   0.917   0.204
 4957TIP3   OH238323   6.220   0.736   1.443
 4957TIP3    H138324   6.161   0.802   1.480
 4957TIP3    H238325   6.297   0.786   1.415
 4958TIP3   OH238326   6.448   0.824   0.068
 4958TIP3    H138327   6.462   0.866  -0.017
 4958TIP3    H238328   6.536   0.811   0.103
 4959TIP3   OH238329   6.783   1.002   1.871
 4959TIP3    H138330   6.854   0.999   1.935
 4959TIP3    H238331   6.724   0.931   1.897
 4960TIP3   OH238332   7.340   1.058   8.499
 4960TIP3    H138333   7.406   1.014   8.446
 4960TIP3    H238334   7.365   1.151   8.495
 4961TIP3   OH238335   6.305   0.511   1.579
 4961TIP3    H138336   6.324   0.448   1.510
 4961TIP3    H238337   6.272   0.588   1.533
 4962TIP3   OH238338   6.366   0.371   1.332
 4962TIP3    H138339   6.419   0.428   1.276
 4962TIP3    H238340   6.277   0.380   1.296
 4963TIP3   OH238341   6.426   0.881   1.338
 4963TIP3    H138342   6.463   0.905   1.423
 4963TIP3    H238343   6.406   0.964   1.296
 4964TIP3   OH238344   6.976   0.632   1.824
 4964TIP3    H138345   6.907   0.567   1.813
 4964TIP3    H238346   6.957   0.672   1.909
 4965TIP3   OH238347   7.061   0.921   1.643
 4965TIP3    H138348   7.013   0.996   1.609
 4965TIP3    H238349   7.150   0.953   1.655
 4966TIP3   OH238350   6.113   0.595   1.781
 4966TIP3    H138351   6.048   0.525   1.790
 4966TIP3    H238352   6.181   0.557   1.725
 4967TIP3   OH238353   6.372   0.099   1.338
 4967TIP3    H138354   6.380   0.194   1.330
 4967TIP3    H238355   6.293   0.085   1.390
 4968TIP3   OH238356   6.533   0.489   1.731
 4968TIP3    H138357   6.510   0.423   1.796
 4968TIP3    H238358   6.453   0.502   1.680
 4969TIP3   OH238359   6.802   0.426   1.735
 4969TIP3    H138360   6.712   0.451   1.712
 4969TIP3    H238361   6.793   0.374   1.814
 4970TIP3   OH238362   5.940   0.372   1.810
 4970TIP3    H138363   5.966   0.317   1.736
 4970TIP3    H238364   5.926   0.310   1.882
 4971TIP3   OH238365   6.444   0.096   1.650
 4971TIP3    H138366   6.447   0.001   1.665
 4971TIP3    H238367   6.520   0.114   1.594
 4972TIP3   OH238368   6.445   0.260   1.871
 4972TIP3    H138369   6.438   0.207   1.791
 4972TIP3    H238370   6.378   0.224   1.929
 4973TIP3   OH238371   6.422   1.922   0.179
 4973TIP3    H138372   6.517   1.916   0.181
 4973TIP3    H238373   6.402   2.002   0.227
 4974TIP3   OH238374   5.783   1.334   0.093
 4974TIP3    H138375   5.876   1.332   0.116
 4974TIP3    H238376   5.781   1.324  -0.002
 4975TIP3   OH238377   5.661   1.831   0.666
 4975TIP3    H138378   5.607   1.793   0.597
 4975TIP3    H238379   5.685   1.757   0.722
 4976TIP3   OH238380   5.742   1.612   0.815
 4976TIP3    H138381   5.704   1.539   0.865
 4976TIP3    H238382   5.795   1.659   0.879
 4977TIP3   OH238383   7.515   1.716   1.153
 4977TIP3    H138384   7.493   1.695   1.243
 4977TIP3    H238385   7.526   1.811   1.153
 4978TIP3   OH238386   7.428   1.664   1.404
 4978TIP3    H138387   7.371   1.594   1.375
 4978TIP3    H238388   7.471   1.630   1.483
 4979TIP3   OH238389   7.343   1.328   1.950
 4979TIP3    H138390   7.251   1.317   1.973
 4979TIP3    H238391   7.345   1.329   1.854
 4980TIP3   OH238392   7.410   1.097   0.412
 4980TIP3    H138393   7.478   1.164   0.419
 4980TIP3    H238394   7.430   1.035   0.483
 4981TIP3   OH238395   7.461   0.895   0.596
 4981TIP3    H138396   7.376   0.877   0.637
 4981TIP3    H238397   7.514   0.932   0.667
 4982TIP3   OH238398   7.439   1.212   1.124
 4982TIP3    H138399   7.490   1.151   1.072
 4982TIP3    H238400   7.468   1.299   1.096
 4983TIP3   OH238401   7.260   1.469   1.310
 4983TIP3    H138402   7.187   1.512   1.355
 4983TIP3    H238403   7.227   1.451   1.222
 4984TIP3   OH238404   7.442   0.908   0.217
 4984TIP3    H138405   7.398   0.948   0.142
 4984TIP3    H238406   7.435   0.974   0.286
 4985TIP3   OH238407   7.273   0.592   0.084
 4985TIP3    H138408   7.339   0.625   0.023
 4985TIP3    H238409   7.241   0.511   0.043
 4986TIP3   OH238410   7.217   0.803   0.677
 4986TIP3    H138411   7.208   0.714   0.643
 4986TIP3    H238412   7.178   0.801   0.764
 4987TIP3   OH238413   5.725   1.021   1.087
 4987TIP3    H138414   5.723   0.998   0.994
 4987TIP3    H238415   5.806   0.980   1.119
 4988TIP3   OH238416   7.336   0.997   1.633
 4988TIP3    H138417   7.380   0.913   1.626
 4988TIP3    H238418   7.355   1.027   1.722
 4989TIP3   OH238419   7.448   0.747   1.610
 4989TIP3    H138420   7.358   0.717   1.626
 4989TIP3    H238421   7.502   0.672   1.635
 4990TIP3   OH238422   7.175   0.341   8.493
 4990TIP3    H138423   7.184   0.306   8.582
 4990TIP3    H238424   7.084   0.371   8.489
 4991TIP3   OH238425   7.212   0.577   0.496
 4991TIP3    H138426   7.246   0.488   0.505
 4991TIP3    H238427   7.276   0.621   0.439
 4992TIP3   OH238428   7.224   0.596   1.074
 4992TIP3    H138429   7.318   0.610   1.061
 4992TIP3    H238430   7.211   0.609   1.167
 4993TIP3   OH238431   7.240   0.663   1.339
 4993TIP3    H138432   7.160   0.676   1.390
 4993TIP3    H238433   7.281   0.749   1.336
 4994TIP3   OH238434   5.709   0.505   1.714
 4994TIP3    H138435   5.781   0.487   1.775
 4994TIP3    H238436   5.701   0.425   1.662
 4995TIP3   OH238437   7.453   0.213   1.764
 4995TIP3    H138438   7.424   0.138   1.814
 4995TIP3    H238439   7.548   0.203   1.759
 4996TIP3   OH238440   7.285   0.311   0.524
 4996TIP3    H138441   7.269   0.302   0.618
 4996TIP3    H238442   7.214   0.262   0.483
 4997TIP3   OH238443   5.819   0.401   1.006
 4997TIP3    H138444   5.860   0.315   1.012
 4997TIP3    H238445   5.889   0.464   1.023
 4998TIP3   OH238446   5.662   0.679   1.044
 4998TIP3    H138447   5.741   0.689   0.991
 4998TIP3    H238448   5.693   0.676   1.134
 4999TIP3   OH238449   7.461   0.278   1.495
 4999TIP3    H138450   7.372   0.312   1.488
 4999TIP3    H238451   7.470   0.251   1.586
 5000TIP3   OH238452   7.493   0.227   0.107
 5000TIP3    H138453   7.487   0.226   0.012
 5000TIP3    H238454   7.527   0.315   0.127
 5001TIP3   OH238455   5.696   0.221   0.503
 5001TIP3    H138456   5.645   0.259   0.574
 5001TIP3    H238457   5.719   0.296   0.448
 5002TIP3   OH238458   7.148   1.754   0.677
 5002TIP3    H138459   7.224   1.744   0.620
 5002TIP3    H238460   7.181   1.801   0.754
 5003TIP3   OH238461   5.728   0.162   1.226
 5003TIP3    H138462   5.727   0.196   1.315
 5003TIP3    H238463   5.667   0.218   1.178
 5004TIP3   OH238464   5.915   1.478   1.741
 5004TIP3    H138465   5.824   1.449   1.738
 5004TIP3    H238466   5.942   1.465   1.832
 5005TIP3   OH238467   6.217   1.581   1.350
 5005TIP3    H138468   6.188   1.667   1.321
 5005TIP3    H238469   6.313   1.585   1.346
 5006TIP3   OH238470   6.610   1.687   1.626
 5006TIP3    H138471   6.601   1.681   1.721
 5006TIP3    H238472   6.682   1.748   1.612
 5007TIP3   OH238473   6.843   1.832   1.582
 5007TIP3    H138474   6.888   1.754   1.548
 5007TIP3    H238475   6.882   1.847   1.668
 5008TIP3   OH238476   7.260   0.055   1.465
 5008TIP3    H138477   7.241   0.140   1.506
 5008TIP3    H238478   7.241   0.068   1.372
 5009TIP3   OH238479   5.925   1.876   1.364
 5009TIP3    H138480   5.846   1.914   1.326
 5009TIP3    H238481   5.928   1.911   1.453
 5010TIP3   OH238482   6.180   1.839   1.269
 5010TIP3    H138483   6.093   1.855   1.305
 5010TIP3    H238484   6.184   1.894   1.191
 5011TIP3   OH238485   6.652   1.828   1.164
 5011TIP3    H138486   6.577   1.856   1.111
 5011TIP3    H238487   6.661   1.896   1.230
 5012TIP3   OH238488   6.870   1.691   1.264
 5012TIP3    H138489   6.791   1.733   1.229
 5012TIP3    H238490   6.937   1.758   1.260
 5013TIP3   OH238491   7.111   1.835   1.274
 5013TIP3    H138492   7.123   1.925   1.247
 5013TIP3    H238493   7.155   1.783   1.207
 5014TIP3   OH238494   5.895   1.723   1.025
 5014TIP3    H138495   5.882   1.678   1.109
 5014TIP3    H238496   5.978   1.688   0.991
 5015TIP3   OH238497   6.115   1.605   0.914
 5015TIP3    H138498   6.098   1.513   0.935
 5015TIP3    H238499   6.197   1.625   0.960
 5016TIP3   OH238500   6.362   1.625   1.046
 5016TIP3    H138501   6.373   1.534   1.018
 5016TIP3    H238502   6.395   1.627   1.135
 5017TIP3   OH238503   6.709   0.269   0.928
 5017TIP3    H138504   6.638   0.205   0.942
 5017TIP3    H238505   6.769   0.225   0.868
 5018TIP3   OH238506   7.160   0.164   0.886
 5018TIP3    H138507   7.250   0.155   0.854
 5018TIP3    H238508   7.166   0.142   0.979
 5019TIP3   OH238509   7.414   0.165   0.740
 5019TIP3    H138510   7.424   0.145   0.648
 5019TIP3    H238511   7.458   0.250   0.751
 5020TIP3   OH238512   5.904   0.143   0.677
 5020TIP3    H138513   5.822   0.163   0.632
 5020TIP3    H238514   5.914   0.048   0.666
 5021TIP3   OH238515   5.788   0.117   0.225
 5021TIP3    H138516   5.871   0.164   0.215
 5021TIP3    H238517   5.721   0.180   0.198
 5022TIP3   OH238518   6.389   0.106   0.669
 5022TIP3    H138519   6.468   0.133   0.622
 5022TIP3    H238520   6.408   0.126   0.761
 5023TIP3   OH238521   6.896   0.150   0.765
 5023TIP3    H138522   6.984   0.171   0.796
 5023TIP3    H238523   6.895   0.055   0.757
 5024TIP3   OH238524   7.095   0.160   0.400
 5024TIP3    H138525   7.014   0.209   0.407
 5024TIP3    H238526   7.070   0.068   0.414
 5025TIP3   OH238527   5.775   1.681   0.350
 5025TIP3    H138528   5.704   1.673   0.286
 5025TIP3    H238529   5.805   1.771   0.342
 5026TIP3   OH238530   6.029   0.228   0.150
 5026TIP3    H138531   6.066   0.267   0.071
 5026TIP3    H238532   6.088   0.254   0.221
 5027TIP3   OH238533   6.497   0.318   0.357
 5027TIP3    H138534   6.539   0.253   0.414
 5027TIP3    H238535   6.509   0.401   0.403
 5028TIP3   OH238536   6.697   1.875   0.184
 5028TIP3    H138537   6.789   1.900   0.186
 5028TIP3    H238538   6.697   1.783   0.158
 5029TIP3   OH238539   7.345   1.721   0.483
 5029TIP3    H138540   7.349   1.631   0.453
 5029TIP3    H238541   7.324   1.772   0.404
 5030TIP3   OH238542   6.015   0.204   1.593
 5030TIP3    H138543   5.951   0.136   1.576
 5030TIP3    H238544   6.067   0.170   1.666
 5031TIP3   OH238545   6.104   0.106   1.831
 5031TIP3    H138546   6.134   0.015   1.825
 5031TIP3    H238547   6.055   0.110   1.913
 5032TIP3   OH238548   6.003   1.804   0.096
 5032TIP3    H138549   5.930   1.829   0.153
 5032TIP3    H238550   6.023   1.714   0.121
 5033TIP3   OH238551   7.062   0.059   1.825
 5033TIP3    H138552   7.046  -0.034   1.841
 5033TIP3    H238553   7.001   0.082   1.755
 5034TIP3   OH238554   7.248   1.607   1.693
 5034TIP3    H138555   7.190   1.598   1.618
 5034TIP3    H238556   7.249   1.700   1.713
 5035TIP3   OH238557   7.544   0.635   0.556
 5035TIP3    H138558   7.517   0.722   0.586
 5035TIP3    H238559   7.502   0.625   0.471
 5036TIP3   OH238560   7.645   0.992   0.771
 5036TIP3    H138561   7.729   0.951   0.749
 5036TIP3    H238562   7.666   1.082   0.792
 5037TIP3   OH238563   7.597   1.300   0.387
 5037TIP3    H138564   7.596   1.311   0.292
 5037TIP3    H238565   7.549   1.376   0.420
 5038TIP3   OH238566   7.563   1.134   1.364
 5038TIP3    H138567   7.508   1.158   1.290
 5038TIP3    H238568   7.542   1.042   1.381
 5039TIP3   OH238569   7.564   1.455   1.049
 5039TIP3    H138570   7.660   1.449   1.046
 5039TIP3    H238571   7.546   1.536   1.096
 5040TIP3   OH238572   7.546   0.403   0.719
 5040TIP3    H138573   7.627   0.416   0.769
 5040TIP3    H238574   7.534   0.486   0.672
 5041TIP3   OH238575   7.597   0.449   0.242
 5041TIP3    H138576   7.688   0.475   0.260
 5041TIP3    H238577   7.546   0.529   0.255
 5042TIP3   OH238578   7.603   0.843   1.407
 5042TIP3    H138579   7.561   0.815   1.488
 5042TIP3    H238580   7.535   0.833   1.340
 5043TIP3   OH238581   7.609   1.797   1.679
 5043TIP3    H138582   7.703   1.785   1.697
 5043TIP3    H238583   7.575   1.708   1.671
 5044TIP3   OH238584   7.636   1.105   1.741
 5044TIP3    H138585   7.576   1.061   1.802
 5044TIP3    H238586   7.580   1.162   1.689
 5045TIP3   OH238587   7.608   1.317   0.101
 5045TIP3    H138588   7.703   1.319   0.113
 5045TIP3    H238589   7.595   1.281   0.014
 5046TIP3   OH238590   7.488   1.848   0.673
 5046TIP3    H138591   7.439   1.808   0.601
 5046TIP3    H238592   7.495   1.779   0.739
 5047TIP3   OH238593   7.535   1.639   0.836
 5047TIP3    H138594   7.510   1.566   0.892
 5047TIP3    H238595   7.627   1.655   0.857
 5048TIP3   OH238596   7.577   0.983   1.038
 5048TIP3    H138597   7.575   0.959   0.945
 5048TIP3    H238598   7.669   1.004   1.055
 5049TIP3   OH238599   7.574   0.511   1.660
 5049TIP3    H138600   7.669   0.508   1.665
 5049TIP3    H238601   7.543   0.472   1.742
 5050TIP3   OH238602   7.496   0.656   1.052
 5050TIP3    H138603   7.590   0.660   1.066
 5050TIP3    H238604   7.460   0.721   1.112
 5051TIP3   OH238605   7.531   0.243   0.411
 5051TIP3    H138606   7.449   0.267   0.454
 5051TIP3    H238607   7.548   0.315   0.350
 5052TIP3   OH238608   7.517   0.154   1.262
 5052TIP3    H138609   7.495   0.187   1.349
 5052TIP3    H238610   7.478   0.217   1.201
 5053TIP3   OH238611   7.702   1.656   0.385
 5053TIP3    H138612   7.629   1.675   0.326
 5053TIP3    H238613   7.693   1.720   0.456
 5054TIP3   OH238614   1.235   2.892   0.712
 5054TIP3    H138615   1.260   2.919   0.800
 5054TIP3    H238616   1.186   2.967   0.677
 5055TIP3   OH238617   1.069   2.817   1.052
 5055TIP3    H138618   1.090   2.778   1.137
 5055TIP3    H238619   1.010   2.754   1.010
 5056TIP3   OH238620   0.265   2.735   1.179
 5056TIP3    H138621   0.263   2.672   1.251
 5056TIP3    H238622   0.346   2.785   1.193
 5057TIP3   OH238623   1.425   3.110   0.870
 5057TIP3    H138624   1.406   3.036   0.928
 5057TIP3    H238625   1.449   3.181   0.929
 5058TIP3   OH238626   0.438   3.223   1.074
 5058TIP3    H138627   0.391   3.145   1.046
 5058TIP3    H238628   0.530   3.203   1.056
 5059TIP3   OH238629   0.145   2.663   0.576
 5059TIP3    H138630   0.055   2.651   0.547
 5059TIP3    H238631   0.178   2.574   0.591
 5060TIP3   OH238632   0.246   2.795   0.793
 5060TIP3    H138633   0.255   2.712   0.840
 5060TIP3    H238634   0.220   2.770   0.704
 5061TIP3   OH238635   1.145   3.610   0.873
 5061TIP3    H138636   1.202   3.554   0.822
 5061TIP3    H238637   1.146   3.572   0.961
 5062TIP3   OH238638   0.938   3.070   1.093
 5062TIP3    H138639   0.976   2.989   1.061
 5062TIP3    H238640   1.002   3.103   1.157
 5063TIP3   OH238641   1.800   2.199   1.157
 5063TIP3    H138642   1.798   2.262   1.230
 5063TIP3    H238643   1.868   2.233   1.099
 5064TIP3   OH238644   1.262   2.484   1.085
 5064TIP3    H138645   1.274   2.396   1.121
 5064TIP3    H238646   1.211   2.471   1.006
 5065TIP3   OH238647   0.589   2.310   0.790
 5065TIP3    H138648   0.588   2.393   0.743
 5065TIP3    H238649   0.534   2.252   0.736
 5066TIP3   OH238650   1.333   2.334   0.670
 5066TIP3    H138651   1.376   2.305   0.750
 5066TIP3    H238652   1.403   2.372   0.617
 5067TIP3   OH238653   0.247   2.531   0.870
 5067TIP3    H138654   0.310   2.478   0.918
 5067TIP3    H238655   0.203   2.469   0.811
 5068TIP3   OH238656   0.687   2.725   0.834
 5068TIP3    H138657   0.768   2.688   0.868
 5068TIP3    H238658   0.651   2.656   0.777
 5069TIP3   OH238659   1.785   2.361   1.383
 5069TIP3    H138660   1.731   2.438   1.362
 5069TIP3    H238661   1.834   2.387   1.461
 5070TIP3   OH238662   0.447   2.215   1.238
 5070TIP3    H138663   0.417   2.274   1.170
 5070TIP3    H238664   0.378   2.219   1.305
 5071TIP3   OH238665   1.137   3.096   0.560
 5071TIP3    H138666   1.124   3.124   0.469
 5071TIP3    H238667   1.209   3.151   0.591
 5072TIP3   OH238668   0.706   2.976   1.211
 5072TIP3    H138669   0.655   3.035   1.265
 5072TIP3    H238670   0.784   3.026   1.186
 5073TIP3   OH238671   1.482   2.292   0.895
 5073TIP3    H138672   1.425   2.251   0.959
 5073TIP3    H238673   1.546   2.342   0.946
 5074TIP3   OH238674   0.425   2.370   1.009
 5074TIP3    H138675   0.480   2.428   1.061
 5074TIP3    H238676   0.484   2.335   0.942
 5075TIP3   OH238677   0.548   3.144   1.364
 5075TIP3    H138678   0.615   3.179   1.423
 5075TIP3    H238679   0.491   3.093   1.420
 5076TIP3   OH238680   0.223   3.118   0.547
 5076TIP3    H138681   0.134   3.088   0.529
 5076TIP3    H238682   0.217   3.213   0.549
 5077TIP3   OH238683   1.477   3.317   1.053
 5077TIP3    H138684   1.386   3.321   1.081
 5077TIP3    H238685   1.502   3.408   1.039
 5078TIP3   OH238686   1.542   2.075   1.186
 5078TIP3    H138687   1.472   2.125   1.144
 5078TIP3    H238688   1.621   2.124   1.165
 5079TIP3   OH238689   0.785   1.902   0.985
 5079TIP3    H138690   0.756   1.811   0.993
 5079TIP3    H238691   0.709   1.954   1.014
 5080TIP3   OH238692   1.289   3.456   0.699
 5080TIP3    H138693   1.324   3.371   0.672
 5080TIP3    H238694   1.363   3.516   0.695
 5081TIP3   OH238695   1.379   3.208   0.621
 5081TIP3    H138696   1.441   3.168   0.561
 5081TIP3    H238697   1.403   3.173   0.707
 5082TIP3   OH238698   1.618   3.113   1.445
 5082TIP3    H138699   1.605   3.051   1.373
 5082TIP3    H238700   1.624   3.199   1.403
 5083TIP3   OH238701   1.056   2.802   0.438
 5083TIP3    H138702   1.067   2.871   0.503
 5083TIP3    H238703   1.138   2.803   0.387
 5084TIP3   OH238704   1.077   2.678   0.139
 5084TIP3    H138705   1.149   2.703   0.197
 5084TIP3    H238706   1.120   2.633   0.066
 5085TIP3   OH238707   1.774   2.787   1.257
 5085TIP3    H138708   1.701   2.849   1.253
 5085TIP3    H238709   1.828   2.807   1.181
 5086TIP3   OH238710   1.421   2.829   0.524
 5086TIP3    H138711   1.355   2.851   0.590
 5086TIP3    H238712   1.486   2.777   0.571
 5087TIP3   OH238713   1.376   2.630   1.434
 5087TIP3    H138714   1.398   2.692   1.503
 5087TIP3    H238715   1.299   2.667   1.392
 5088TIP3   OH238716   0.545   2.907   0.661
 5088TIP3    H138717   0.503   2.849   0.597
 5088TIP3    H238718   0.585   2.847   0.725
 5089TIP3   OH238719   0.697   3.171   0.959
 5089TIP3    H138720   0.700   3.078   0.938
 5089TIP3    H238721   0.778   3.188   1.006
 5090TIP3   OH238722   0.556   2.797   1.071
 5090TIP3    H138723   0.611   2.768   0.998
 5090TIP3    H238724   0.615   2.848   1.126
 5091TIP3   OH238725   1.224   3.324   1.150
 5091TIP3    H138726   1.210   3.403   1.203
 5091TIP3    H238727   1.187   3.254   1.203
 5092TIP3   OH238728   0.715   3.237   1.556
 5092TIP3    H138729   0.644   3.294   1.586
 5092TIP3    H238730   0.722   3.169   1.622
 5093TIP3   OH238731   1.297   2.768   0.290
 5093TIP3    H138732   1.347   2.791   0.369
 5093TIP3    H238733   1.339   2.818   0.220
 5094TIP3   OH238734   0.420   2.837   1.449
 5094TIP3    H138735   0.429   2.895   1.525
 5094TIP3    H238736   0.330   2.807   1.452
 5095TIP3   OH238737   0.990   3.474   0.673
 5095TIP3    H138738   1.066   3.416   0.669
 5095TIP3    H238739   1.014   3.540   0.737
 5096TIP3   OH238740   0.492   3.392   1.599
 5096TIP3    H138741   0.509   3.469   1.653
 5096TIP3    H238742   0.411   3.355   1.634
 5097TIP3   OH238743   1.645   1.932   0.287
 5097TIP3    H138744   1.555   1.936   0.254
 5097TIP3    H238745   1.692   1.998   0.236
 5098TIP3   OH238746   0.399   2.770   0.476
 5098TIP3    H138747   0.365   2.824   0.405
 5098TIP3    H238748   0.329   2.708   0.495
 5099TIP3   OH238749   1.757   3.340   0.125
 5099TIP3    H138750   1.777   3.434   0.129
 5099TIP3    H238751   1.842   3.297   0.115
 5100TIP3   OH238752   0.136   2.999   1.323
 5100TIP3    H138753   0.043   3.016   1.336
 5100TIP3    H238754   0.152   2.916   1.368
 5101TIP3   OH238755   0.104   3.315   1.037
 5101TIP3    H138756   0.111   3.219   1.041
 5101TIP3    H238757   0.135   3.344   1.123
 5102TIP3   OH238758   1.864   3.387   1.646
 5102TIP3    H138759   1.844   3.294   1.662
 5102TIP3    H238760   1.784   3.433   1.669
 5103TIP3   OH238761   0.960   3.351   1.509
 5103TIP3    H138762   0.959   3.432   1.559
 5103TIP3    H238763   0.876   3.309   1.528
 5104TIP3   OH238764   1.002   3.696   0.444
 5104TIP3    H138765   1.018   3.721   0.353
 5104TIP3    H238766   1.000   3.779   0.492
 5105TIP3   OH238767   0.386   3.558   0.702
 5105TIP3    H138768   0.406   3.522   0.788
 5105TIP3    H238769   0.332   3.492   0.659
 5106TIP3   OH238770   1.328   3.613   0.149
 5106TIP3    H138771   1.405   3.558   0.136
 5106TIP3    H238772   1.328   3.634   0.242
 5107TIP3   OH238773   1.296   3.653   0.432
 5107TIP3    H138774   1.203   3.649   0.453
 5107TIP3    H238775   1.340   3.630   0.513
 5108TIP3   OH238776   1.593   2.532   1.670
 5108TIP3    H138777   1.518   2.591   1.676
 5108TIP3    H238778   1.572   2.459   1.728
 5109TIP3   OH238779   0.263   3.210   1.443
 5109TIP3    H138780   0.250   3.226   1.537
 5109TIP3    H238781   0.214   3.130   1.425
 5110TIP3   OH238782   0.555   2.033   1.061
 5110TIP3    H138783   0.480   2.024   1.003
 5110TIP3    H238784   0.527   2.097   1.126
 5111TIP3   OH238785   1.036   1.984   1.403
 5111TIP3    H138786   1.075   1.950   1.484
 5111TIP3    H238787   0.942   1.983   1.419
 5112TIP3   OH238788   1.327   2.359   1.491
 5112TIP3    H138789   1.264   2.350   1.563
 5112TIP3    H238790   1.341   2.454   1.484
 5113TIP3   OH238791   1.419   2.919   0.092
 5113TIP3    H138792   1.396   3.011   0.106
 5113TIP3    H238793   1.509   2.921   0.061
 5114TIP3   OH238794   0.986   2.211   0.176
 5114TIP3    H138795   0.920   2.190   0.242
 5114TIP3    H238796   0.936   2.250   0.104
 5115TIP3   OH238797   0.564   2.535   1.180
 5115TIP3    H138798   0.502   2.525   1.253
 5115TIP3    H238799   0.554   2.626   1.153
 5116TIP3   OH238800   0.586   2.552   0.644
 5116TIP3    H138801   0.495   2.527   0.627
 5116TIP3    H238802   0.623   2.569   0.558
 5117TIP3   OH238803   1.110   2.531   0.511
 5117TIP3    H138804   1.090   2.624   0.503
 5117TIP3    H238805   1.193   2.520   0.464
 5118TIP3   OH238806   1.005   2.599   1.667
 5118TIP3    H138807   0.967   2.523   1.709
 5118TIP3    H238808   1.061   2.638   1.733
 5119TIP3   OH238809   1.152   2.500   0.831
 5119TIP3    H138810   1.175   2.586   0.797
 5119TIP3    H238811   1.192   2.438   0.770
 5120TIP3   OH238812   0.352   2.509   1.363
 5120TIP3    H138813   0.373   2.538   1.452
 5120TIP3    H238814   0.306   2.426   1.374
 5121TIP3   OH238815   0.753   2.324   0.051
 5121TIP3    H138816   0.693   2.291   0.118
 5121TIP3    H238817   0.696   2.371  -0.010
 5122TIP3   OH238818   0.099   2.337   0.738
 5122TIP3    H138819   0.110   2.281   0.815
 5122TIP3    H238820   0.101   2.276   0.664
 5123TIP3   OH238821   0.192   2.418   0.366
 5123TIP3    H138822   0.225   2.431   0.277
 5123TIP3    H238823   0.153   2.330   0.365
 5124TIP3   OH238824   1.146   2.659   1.266
 5124TIP3    H138825   1.195   2.598   1.210
 5124TIP3    H238826   1.089   2.603   1.319
 5125TIP3   OH238827   0.860   2.262   0.775
 5125TIP3    H138828   0.766   2.269   0.788
 5125TIP3    H238829   0.897   2.254   0.863
 5126TIP3   OH238830   0.348   2.442   0.582
 5126TIP3    H138831   0.293   2.440   0.504
 5126TIP3    H238832   0.360   2.350   0.605
 5127TIP3   OH238833   0.734   2.586   0.379
 5127TIP3    H138834   0.767   2.503   0.413
 5127TIP3    H238835   0.669   2.561   0.313
 5128TIP3   OH238836   1.296   2.183   1.068
 5128TIP3    H138837   1.259   2.188   1.156
 5128TIP3    H238838   1.233   2.132   1.018
 5129TIP3   OH238839   0.554   2.576   0.160
 5129TIP3    H138840   0.462   2.548   0.163
 5129TIP3    H238841   0.580   2.565   0.068
 5130TIP3   OH238842   1.604   3.792   1.780
 5130TIP3    H138843   1.607   3.884   1.753
 5130TIP3    H238844   1.658   3.789   1.859
 5131TIP3   OH238845   0.425   3.018   1.657
 5131TIP3    H138846   0.487   3.032   1.728
 5131TIP3    H238847   0.339   3.011   1.700
 5132TIP3   OH238848   0.912   2.599   0.950
 5132TIP3    H138849   0.983   2.550   0.910
 5132TIP3    H238850   0.885   2.546   1.025
 5133TIP3   OH238851   0.418   2.176   0.619
 5133TIP3    H138852   0.360   2.114   0.663
 5133TIP3    H238853   0.441   2.133   0.537
 5134TIP3   OH238854   0.834   2.450   1.178
 5134TIP3    H138855   0.747   2.489   1.191
 5134TIP3    H238856   0.882   2.472   1.258
 5135TIP3   OH238857   0.863   3.021   0.355
 5135TIP3    H138858   0.811   3.086   0.308
 5135TIP3    H238859   0.844   3.037   0.447
 5136TIP3   OH238860   1.581   2.975   1.207
 5136TIP3    H138861   1.640   3.032   1.159
 5136TIP3    H238862   1.505   2.964   1.149
 5137TIP3   OH238863   1.307   2.287   0.175
 5137TIP3    H138864   1.294   2.344   0.098
 5137TIP3    H238865   1.318   2.348   0.247
 5138TIP3   OH238866   1.023   3.057   1.542
 5138TIP3    H138867   1.081   3.015   1.605
 5138TIP3    H238868   1.021   3.149   1.568
 5139TIP3   OH238869   1.339   2.492   0.361
 5139TIP3    H138870   1.419   2.477   0.410
 5139TIP3    H238871   1.350   2.579   0.322
 5140TIP3   OH238872   0.407   2.973   0.917
 5140TIP3    H138873   0.347   2.908   0.881
 5140TIP3    H238874   0.460   2.924   0.980
 5141TIP3   OH238875   1.107   3.149   0.289
 5141TIP3    H138876   1.071   3.237   0.302
 5141TIP3    H238877   1.031   3.091   0.296
 5142TIP3   OH238878   0.151   2.771   1.470
 5142TIP3    H138879   0.171   2.745   1.560
 5142TIP3    H238880   0.057   2.755   1.462
 5143TIP3   OH238881   0.786   2.762   1.648
 5143TIP3    H138882   0.719   2.711   1.602
 5143TIP3    H238883   0.864   2.707   1.645
 5144TIP3   OH238884   1.241   3.325   1.509
 5144TIP3    H138885   1.148   3.336   1.487
 5144TIP3    H238886   1.245   3.344   1.603
 5145TIP3   OH238887   1.769   2.549   0.320
 5145TIP3    H138888   1.700   2.526   0.258
 5145TIP3    H238889   1.794   2.638   0.297
 5146TIP3   OH238890   1.843   3.096   1.600
 5146TIP3    H138891   1.755   3.107   1.562
 5146TIP3    H238892   1.900   3.085   1.525
 5147TIP3   OH238893   1.617   3.376   0.363
 5147TIP3    H138894   1.575   3.293   0.388
 5147TIP3    H238895   1.665   3.355   0.283
 5148TIP3   OH238896   1.358   2.888   1.019
 5148TIP3    H138897   1.268   2.870   1.045
 5148TIP3    H238898   1.395   2.802   0.998
 5149TIP3   OH238899   0.563   3.256   0.726
 5149TIP3    H138900   0.608   3.250   0.810
 5149TIP3    H238901   0.583   3.344   0.695
 5150TIP3   OH238902   0.169   2.773   0.158
 5150TIP3    H138903   0.215   2.841   0.207
 5150TIP3    H238904   0.078   2.779   0.186
 5151TIP3   OH238905   0.752   3.076   0.596
 5151TIP3    H138906   0.721   3.155   0.639
 5151TIP3    H238907   0.688   3.009   0.620
 5152TIP3   OH238908   0.833   3.471   1.286
 5152TIP3    H138909   0.885   3.549   1.265
 5152TIP3    H238910   0.882   3.427   1.355
 5153TIP3   OH238911   0.651   3.547   0.623
 5153TIP3    H138912   0.557   3.559   0.635
 5153TIP3    H238913   0.690   3.630   0.653
 5154TIP3   OH238914   1.134   3.094   1.291
 5154TIP3    H138915   1.081   3.082   1.369
 5154TIP3    H238916   1.220   3.059   1.314
 5155TIP3   OH238917   1.373   3.177   0.188
 5155TIP3    H138918   1.416   3.150   0.269
 5155TIP3    H238919   1.279   3.179   0.211
 5156TIP3   OH238920   1.449   3.512   1.457
 5156TIP3    H138921   1.368   3.461   1.466
 5156TIP3    H238922   1.427   3.582   1.396
 5157TIP3   OH238923   1.812   3.607   0.148
 5157TIP3    H138924   1.820   3.637   0.057
 5157TIP3    H238925   1.761   3.676   0.191
 5158TIP3   OH238926   0.246   2.251   1.428
 5158TIP3    H138927   0.183   2.290   1.488
 5158TIP3    H238928   0.252   2.159   1.454
 5159TIP3   OH238929   1.511   3.069   0.409
 5159TIP3    H138930   1.470   2.990   0.445
 5159TIP3    H238931   1.605   3.048   0.405
 5160TIP3   OH238932   0.217   3.469   1.284
 5160TIP3    H138933   0.147   3.444   1.344
 5160TIP3    H238934   0.243   3.556   1.312
 5161TIP3   OH238935   0.721   3.247   0.262
 5161TIP3    H138936   0.641   3.203   0.232
 5161TIP3    H238937   0.694   3.338   0.276
 5162TIP3   OH238938   0.308   2.978   0.307
 5162TIP3    H138939   0.273   3.025   0.383
 5162TIP3    H238940   0.346   3.046   0.252
 5163TIP3   OH238941   1.184   2.206   1.309
 5163TIP3    H138942   1.231   2.249   1.381
 5163TIP3    H238943   1.133   2.137   1.352
 5164TIP3   OH238944   1.167   2.233   0.466
 5164TIP3    H138945   1.127   2.318   0.449
 5164TIP3    H238946   1.231   2.249   0.536
 5165TIP3   OH238947   0.953   3.379   0.339
 5165TIP3    H138948   0.880   3.333   0.296
 5165TIP3    H238949   1.001   3.421   0.269
 5166TIP3   OH238950   0.876   2.392   0.530
 5166TIP3    H138951   0.957   2.444   0.533
 5166TIP3    H238952   0.867   2.357   0.619
 5167TIP3   OH238953   0.998   2.481   1.416
 5167TIP3    H138954   0.996   2.526   1.501
 5167TIP3    H238955   1.021   2.391   1.438
 5168TIP3   OH238956   0.978   2.074   0.603
 5168TIP3    H138957   0.953   2.131   0.676
 5168TIP3    H238958   1.048   2.122   0.558
 5169TIP3   OH238959   0.680   3.519   0.316
 5169TIP3    H138960   0.714   3.593   0.266
 5169TIP3    H238961   0.586   3.536   0.323
 5170TIP3   OH238962   0.590   2.213   0.246
 5170TIP3    H138963   0.523   2.152   0.277
 5170TIP3    H238964   0.667   2.195   0.301
 5171TIP3   OH238965   1.564   2.219   1.495
 5171TIP3    H138966   1.480   2.264   1.499
 5171TIP3    H238967   1.621   2.280   1.448
 5172TIP3   OH238968   1.452   2.632   0.943
 5172TIP3    H138969   1.379   2.588   0.988
 5172TIP3    H238970   1.530   2.586   0.974
 5173TIP3   OH238971   0.426   3.204   0.156
 5173TIP3    H138972   0.444   3.296   0.138
 5173TIP3    H238973   0.488   3.156   0.100
 5174TIP3   OH238974   0.288   2.520   0.121
 5174TIP3    H138975   0.241   2.603   0.121
 5174TIP3    H238976   0.242   2.466   0.058
 5175TIP3   OH238977   1.565   3.582   1.051
 5175TIP3    H138978   1.552   3.655   0.991
 5175TIP3    H238979   1.658   3.587   1.074
 5176TIP3   OH238980   0.319   1.992   0.926
 5176TIP3    H138981   0.307   1.965   0.836
 5176TIP3    H238982   0.291   1.917   0.978
 5177TIP3   OH238983   0.208   3.386   0.585
 5177TIP3    H138984   0.145   3.423   0.648
 5177TIP3    H238985   0.198   3.440   0.507
 5178TIP3   OH238986   0.212   3.588   1.709
 5178TIP3    H138987   0.237   3.622   1.795
 5178TIP3    H238988   0.118   3.605   1.704
 5179TIP3   OH238989   0.609   3.543   1.821
 5179TIP3    H138990   0.650   3.593   1.892
 5179TIP3    H238991   0.663   3.465   1.811
 5180TIP3   OH238992   1.093   3.474   0.131
 5180TIP3    H138993   1.059   3.458   0.043
 5180TIP3    H238994   1.181   3.510   0.116
 5181TIP3   OH238995   1.243   3.364   1.780
 5181TIP3    H138996   1.210   3.283   1.819
 5181TIP3    H238997   1.325   3.382   1.826
 5182TIP3   OH238998   1.483   3.395   0.045
 5182TIP3    H138999   1.444   3.327   0.099
 5182TIP3    H239000   1.577   3.385   0.057
 5183TIP3   OH239001   0.196   2.996   1.816
 5183TIP3    H139002   0.210   2.917   1.868
 5183TIP3    H239003   0.102   2.998   1.798
 5184TIP3   OH239004   0.625   3.054   0.044
 5184TIP3    H139005   0.634   2.989   0.114
 5184TIP3    H239006   0.622   3.003  -0.037
 5185TIP3   OH239007   0.771   3.021   1.722
 5185TIP3    H139008   0.865   3.040   1.715
 5185TIP3    H239009   0.762   2.931   1.693
 5186TIP3   OH239010   1.349   3.064   1.500
 5186TIP3    H139011   1.443   3.077   1.496
 5186TIP3    H239012   1.313   3.152   1.507
 5187TIP3   OH239013   0.237   2.697   1.714
 5187TIP3    H139014   0.303   2.628   1.712
 5187TIP3    H239015   0.225   2.717   1.807
 5188TIP3   OH239016   0.643   2.841   0.217
 5188TIP3    H139017   0.568   2.788   0.243
 5188TIP3    H239018   0.684   2.793   0.145
 5189TIP3   OH239019   0.613   2.639   1.467
 5189TIP3    H139020   0.543   2.704   1.462
 5189TIP3    H239021   0.676   2.668   1.401
 5190TIP3   OH239022   0.818   2.711   0.060
 5190TIP3    H139023   0.785   2.654  -0.009
 5190TIP3    H239024   0.911   2.690   0.067
 5191TIP3   OH239025   1.147   2.915   1.825
 5191TIP3    H139026   1.234   2.926   1.863
 5191TIP3    H239027   1.111   2.838   1.869
 5192TIP3   OH239028   1.689   2.976   8.490
 5192TIP3    H139029   1.657   3.005   8.404
 5192TIP3    H239030   1.724   3.055   8.531
 5193TIP3   OH239031   0.674   2.396   1.580
 5193TIP3    H139032   0.678   2.330   1.510
 5193TIP3    H239033   0.647   2.476   1.536
 5194TIP3   OH239034   0.699   2.236   1.343
 5194TIP3    H139035   0.746   2.287   1.277
 5194TIP3    H239036   0.609   2.232   1.310
 5195TIP3   OH239037   0.813   2.743   1.312
 5195TIP3    H139038   0.888   2.764   1.369
 5195TIP3    H239039   0.782   2.828   1.282
 5196TIP3   OH239040   1.318   2.533   1.891
 5196TIP3    H139041   1.286   2.449   1.925
 5196TIP3    H239042   1.345   2.582   1.968
 5197TIP3   OH239043   1.454   2.805   1.627
 5197TIP3    H139044   1.401   2.885   1.627
 5197TIP3    H239045   1.536   2.831   1.670
 5198TIP3   OH239046   0.418   2.493   1.687
 5198TIP3    H139047   0.381   2.421   1.738
 5198TIP3    H239048   0.512   2.477   1.688
 5199TIP3   OH239049   0.758   1.966   1.390
 5199TIP3    H139050   0.734   2.058   1.379
 5199TIP3    H239051   0.684   1.917   1.353
 5200TIP3   OH239052   0.882   2.374   1.759
 5200TIP3    H139053   0.849   2.367   1.849
 5200TIP3    H239054   0.803   2.374   1.705
 5201TIP3   OH239055   1.133   2.292   1.669
 5201TIP3    H139056   1.046   2.308   1.708
 5201TIP3    H239057   1.183   2.251   1.740
 5202TIP3   OH239058   1.309   2.179   1.866
 5202TIP3    H139059   1.302   2.085   1.883
 5202TIP3    H239060   1.279   2.220   1.947
 5203TIP3   OH239061   0.321   2.265   1.810
 5203TIP3    H139062   0.324   2.179   1.769
 5203TIP3    H239063   0.338   2.249   1.903
 5204TIP3   OH239064   0.753   1.904   1.665
 5204TIP3    H139065   0.802   1.821   1.663
 5204TIP3    H239066   0.743   1.927   1.573
 5205TIP3   OH239067   0.806   2.073   1.880
 5205TIP3    H139068   0.784   2.018   1.805
 5205TIP3    H239069   0.729   2.128   1.893
 5206TIP3   OH239070   0.768   3.756   0.214
 5206TIP3    H139071   0.861   3.755   0.190
 5206TIP3    H239072   0.743   3.848   0.209
 5207TIP3   OH239073   0.170   3.155   0.055
 5207TIP3    H139074   0.253   3.187   0.090
 5207TIP3    H239075   0.173   3.178  -0.038
 5208TIP3   OH239076   0.057   3.712   0.612
 5208TIP3    H139077  -0.031   3.742   0.637
 5208TIP3    H239078   0.044   3.666   0.529
 5209TIP3   OH239079   0.097   3.499   0.819
 5209TIP3    H139080   0.109   3.438   0.892
 5209TIP3    H239081   0.005   3.525   0.825
 5210TIP3   OH239082   1.828   3.606   1.136
 5210TIP3    H139083   1.834   3.571   1.225
 5210TIP3    H239084   1.865   3.695   1.143
 5211TIP3   OH239085   1.847   3.479   1.379
 5211TIP3    H139086   1.768   3.430   1.354
 5211TIP3    H239087   1.857   3.463   1.472
 5212TIP3   OH239088   1.731   3.215   1.903
 5212TIP3    H139089   1.652   3.178   1.865
 5212TIP3    H239090   1.707   3.234   1.994
 5213TIP3   OH239091   1.773   2.978   0.415
 5213TIP3    H139092   1.843   3.042   0.417
 5213TIP3    H239093   1.791   2.920   0.489
 5214TIP3   OH239094   1.824   2.790   0.615
 5214TIP3    H139095   1.744   2.756   0.656
 5214TIP3    H239096   1.883   2.807   0.688
 5215TIP3   OH239097   1.808   3.100   1.112
 5215TIP3    H139098   1.868   3.037   1.073
 5215TIP3    H239099   1.840   3.185   1.081
 5216TIP3   OH239100   1.613   3.348   1.305
 5216TIP3    H139101   1.551   3.403   1.351
 5216TIP3    H239102   1.573   3.333   1.220
 5217TIP3   OH239103   1.809   2.806   0.204
 5217TIP3    H139104   1.757   2.843   0.133
 5217TIP3    H239105   1.793   2.865   0.278
 5218TIP3   OH239106   1.603   2.515   0.100
 5218TIP3    H139107   1.679   2.539   0.047
 5218TIP3    H239108   1.587   2.423   0.079
 5219TIP3   OH239109   1.574   2.665   0.688
 5219TIP3    H139110   1.572   2.573   0.659
 5219TIP3    H239111   1.534   2.664   0.775
 5220TIP3   OH239112   0.142   3.020   1.053
 5220TIP3    H139113   0.182   2.939   1.019
 5220TIP3    H239114   0.148   3.011   1.148
 5221TIP3   OH239115   1.721   2.865   1.711
 5221TIP3    H139116   1.770   2.791   1.675
 5221TIP3    H239117   1.767   2.942   1.677
 5222TIP3   OH239118   1.848   2.616   1.628
 5222TIP3    H139119   1.756   2.592   1.640
 5222TIP3    H239120   1.897   2.538   1.652
 5223TIP3   OH239121   1.560   2.259   0.031
 5223TIP3    H139122   1.630   2.202   0.064
 5223TIP3    H239123   1.480   2.222   0.067
 5224TIP3   OH239124   1.561   2.421   0.512
 5224TIP3    H139125   1.571   2.326   0.511
 5224TIP3    H239126   1.643   2.454   0.474
 5225TIP3   OH239127   1.642   2.466   1.051
 5225TIP3    H139128   1.736   2.482   1.043
 5225TIP3    H239129   1.622   2.485   1.143
 5226TIP3   OH239130   1.615   2.561   1.309
 5226TIP3    H139131   1.534   2.582   1.357
 5226TIP3    H239132   1.662   2.645   1.304
 5227TIP3   OH239133   0.091   2.291   1.656
 5227TIP3    H139134   0.157   2.327   1.716
 5227TIP3    H239135   0.087   2.198   1.678
 5228TIP3   OH239136   1.941   1.981   1.812
 5228TIP3    H139137   1.910   1.931   1.887
 5228TIP3    H239138   1.866   2.035   1.786
 5229TIP3   OH239139   1.586   2.143   0.503
 5229TIP3    H139140   1.623   2.114   0.586
 5229TIP3    H239141   1.616   2.078   0.439
 5230TIP3   OH239142   0.167   2.217   0.974
 5230TIP3    H139143   0.213   2.133   0.966
 5230TIP3    H239144   0.227   2.273   1.024
 5231TIP3   OH239145   0.053   2.588   1.058
 5231TIP3    H139146   0.117   2.556   0.994
 5231TIP3    H239147   0.105   2.644   1.117
 5232TIP3   OH239148   1.734   2.116   1.696
 5232TIP3    H139149   1.669   2.184   1.676
 5232TIP3    H239150   1.736   2.062   1.618
 5233TIP3   OH239151   1.782   2.132   0.140
 5233TIP3    H139152   1.829   2.104   0.061
 5233TIP3    H239153   1.840   2.195   0.181
 5234TIP3   OH239154   0.073   2.171   0.511
 5234TIP3    H139155  -0.022   2.180   0.509
 5234TIP3    H239156   0.092   2.106   0.443
 5235TIP3   OH239157   1.480   3.647   0.669
 5235TIP3    H139158   1.559   3.645   0.615
 5235TIP3    H239159   1.501   3.706   0.741
 5236TIP3   OH239160   0.066   2.015   1.277
 5236TIP3    H139161  -0.026   1.987   1.283
 5236TIP3    H239162   0.063   2.093   1.222
 5237TIP3   OH239163   0.245   3.314   1.699
 5237TIP3    H139164   0.224   3.407   1.704
 5237TIP3    H239165   0.202   3.276   1.776
 5238TIP3   OH239166   0.560   3.478   1.274
 5238TIP3    H139167   0.547   3.573   1.283
 5238TIP3    H239168   0.650   3.464   1.303
 5239TIP3   OH239169   0.970   3.594   1.638
 5239TIP3    H139170   0.977   3.575   1.731
 5239TIP3    H239171   1.048   3.645   1.618
 5240TIP3   OH239172   1.195   3.748   1.602
 5240TIP3    H139173   1.278   3.734   1.556
 5240TIP3    H239174   1.221   3.772   1.691
 5241TIP3   OH239175   1.673   1.970   1.466
 5241TIP3    H139176   1.624   2.053   1.462
 5241TIP3    H239177   1.612   1.905   1.430
 5242TIP3   OH239178   0.281   3.731   1.344
 5242TIP3    H139179   0.207   3.783   1.313
 5242TIP3    H239180   0.295   3.761   1.434
 5243TIP3   OH239181   0.540   3.748   1.248
 5243TIP3    H139182   0.450   3.756   1.281
 5243TIP3    H239183   0.544   3.809   1.174
 5244TIP3   OH239184   0.968   3.697   1.185
 5244TIP3    H139185   0.924   3.746   1.115
 5244TIP3    H239186   0.984   3.762   1.253
 5245TIP3   OH239187   1.201   3.570   1.267
 5245TIP3    H139188   1.121   3.618   1.248
 5245TIP3    H239189   1.270   3.636   1.266
 5246TIP3   OH239190   1.437   3.713   1.262
 5246TIP3    H139191   1.461   3.804   1.245
 5246TIP3    H239192   1.482   3.663   1.195
 5247TIP3   OH239193   0.253   3.649   1.026
 5247TIP3    H139194   0.211   3.632   1.111
 5247TIP3    H239195   0.320   3.581   1.019
 5248TIP3   OH239196   0.450   3.468   0.948
 5248TIP3    H139197   0.439   3.384   0.993
 5248TIP3    H239198   0.538   3.497   0.973
 5249TIP3   OH239199   0.704   3.540   1.030
 5249TIP3    H139200   0.784   3.486   1.034
 5249TIP3    H239201   0.675   3.546   1.120
 5250TIP3   OH239202   1.028   2.026   0.909
 5250TIP3    H139203   0.939   2.008   0.938
 5250TIP3    H239204   1.071   1.940   0.909
 5251TIP3   OH239205   1.551   1.910   0.862
 5251TIP3    H139206   1.613   1.974   0.827
 5251TIP3    H239207   1.465   1.948   0.843
 5252TIP3   OH239208   1.739   2.046   0.709
 5252TIP3    H139209   1.796   1.972   0.690
 5252TIP3    H239210   1.799   2.117   0.733
 5253TIP3   OH239211   0.290   1.928   0.654
 5253TIP3    H139212   0.199   1.908   0.633
 5253TIP3    H239213   0.333   1.935   0.569
 5254TIP3   OH239214   0.106   2.007   0.289
 5254TIP3    H139215   0.100   2.012   0.193
 5254TIP3    H239216   0.161   1.930   0.306
 5255TIP3   OH239217   0.765   1.913   0.697
 5255TIP3    H139218   0.838   1.969   0.670
 5255TIP3    H239219   0.764   1.918   0.792
 5256TIP3   OH239220   1.294   1.976   0.786
 5256TIP3    H139221   1.223   2.040   0.780
 5256TIP3    H239222   1.255   1.901   0.831
 5257TIP3   OH239223   1.351   1.995   0.371
 5257TIP3    H139224   1.393   2.032   0.449
 5257TIP3    H239225   1.333   1.904   0.395
 5258TIP3   OH239226   0.195   3.554   0.369
 5258TIP3    H139227   0.101   3.542   0.354
 5258TIP3    H239228   0.212   3.644   0.341
 5259TIP3   OH239229   0.338   2.033   0.085
 5259TIP3    H139230   0.377   1.947   0.067
 5259TIP3    H239231   0.344   2.043   0.179
 5260TIP3   OH239232   0.820   2.169   0.386
 5260TIP3    H139233   0.831   2.098   0.450
 5260TIP3    H239234   0.834   2.249   0.436
 5261TIP3   OH239235   1.041   3.750   0.179
 5261TIP3    H139236   1.102   3.811   0.138
 5261TIP3    H239237   1.067   3.664   0.146
 5262TIP3   OH239238   1.688   3.616   0.483
 5262TIP3    H139239   1.664   3.533   0.444
 5262TIP3    H239240   1.684   3.679   0.411
 5263TIP3   OH239241   0.267   2.006   1.654
 5263TIP3    H139242   0.208   1.934   1.673
 5263TIP3    H239243   0.348   1.984   1.700
 5264TIP3   OH239244   0.471   1.912   1.809
 5264TIP3    H139245   0.555   1.869   1.792
 5264TIP3    H239246   0.426   1.852   1.870
 5265TIP3   OH239247   0.437   3.603   0.121
 5265TIP3    H139248   0.439   3.696   0.141
 5265TIP3    H239249   0.346   3.585   0.100
 5266TIP3   OH239250   1.322   1.887   1.870
 5266TIP3    H139251   1.310   1.833   1.947
 5266TIP3    H239252   1.412   1.870   1.842
 5267TIP3   OH239253   1.632   3.532   1.673
 5267TIP3    H139254   1.566   3.524   1.604
 5267TIP3    H239255   1.620   3.621   1.706
 5268TIP3   OH239256   3.078   2.885   0.668
 5268TIP3    H139257   3.064   2.979   0.663
 5268TIP3    H239258   3.000   2.846   0.628
 5269TIP3   OH239259   2.951   2.810   1.045
 5269TIP3    H139260   2.979   2.780   1.131
 5269TIP3    H239261   2.897   2.739   1.011
 5270TIP3   OH239262   2.161   2.715   1.169
 5270TIP3    H139263   2.176   2.662   1.247
 5270TIP3    H239264   2.248   2.747   1.145
 5271TIP3   OH239265   3.324   3.116   0.866
 5271TIP3    H139266   3.291   3.042   0.918
 5271TIP3    H239267   3.351   3.180   0.931
 5272TIP3   OH239268   2.320   3.217   0.966
 5272TIP3    H139269   2.283   3.129   0.954
 5272TIP3    H239270   2.410   3.201   0.993
 5273TIP3   OH239271   1.964   2.558   0.524
 5273TIP3    H139272   1.935   2.638   0.567
 5273TIP3    H239273   1.898   2.541   0.457
 5274TIP3   OH239274   2.028   2.805   0.806
 5274TIP3    H139275   2.060   2.718   0.830
 5274TIP3    H239276   2.102   2.863   0.822
 5275TIP3   OH239277   3.069   3.617   0.889
 5275TIP3    H139278   3.110   3.560   0.823
 5275TIP3    H239279   3.044   3.558   0.959
 5276TIP3   OH239280   2.801   3.059   1.068
 5276TIP3    H139281   2.841   2.980   1.032
 5276TIP3    H239282   2.867   3.092   1.129
 5277TIP3   OH239283   3.645   2.203   1.140
 5277TIP3    H139284   3.655   2.261   1.216
 5277TIP3    H239285   3.729   2.209   1.094
 5278TIP3   OH239286   3.136   2.495   1.085
 5278TIP3    H139287   3.158   2.405   1.110
 5278TIP3    H239288   3.092   2.486   1.000
 5279TIP3   OH239289   2.446   2.281   0.798
 5279TIP3    H139290   2.456   2.367   0.758
 5279TIP3    H239291   2.391   2.232   0.737
 5280TIP3   OH239292   3.215   2.341   0.670
 5280TIP3    H139293   3.270   2.313   0.743
 5280TIP3    H239294   3.275   2.390   0.613
 5281TIP3   OH239295   2.121   2.554   0.878
 5281TIP3    H139296   2.180   2.511   0.939
 5281TIP3    H239297   2.140   2.514   0.793
 5282TIP3   OH239298   2.570   2.689   0.860
 5282TIP3    H139299   2.654   2.656   0.892
 5282TIP3    H239300   2.539   2.620   0.800
 5283TIP3   OH239301   3.654   2.340   1.381
 5283TIP3    H139302   3.614   2.426   1.365
 5283TIP3    H239303   3.712   2.355   1.455
 5284TIP3   OH239304   2.325   2.215   1.242
 5284TIP3    H139305   2.293   2.276   1.176
 5284TIP3    H239306   2.261   2.220   1.313
 5285TIP3   OH239307   3.000   3.127   0.563
 5285TIP3    H139308   3.013   3.158   0.473
 5285TIP3    H239309   2.970   3.204   0.611
 5286TIP3   OH239310   2.560   2.993   1.190
 5286TIP3    H139311   2.517   3.067   1.232
 5286TIP3    H239312   2.637   3.031   1.148
 5287TIP3   OH239313   3.383   2.290   0.883
 5287TIP3    H139314   3.323   2.260   0.951
 5287TIP3    H239315   3.446   2.345   0.928
 5288TIP3   OH239316   2.294   2.377   1.013
 5288TIP3    H139317   2.352   2.432   1.064
 5288TIP3    H239318   2.351   2.335   0.948
 5289TIP3   OH239319   2.432   3.203   1.315
 5289TIP3    H139320   2.441   3.299   1.314
 5289TIP3    H239321   2.340   3.188   1.336
 5290TIP3   OH239322   1.983   3.157   0.393
 5290TIP3    H139323   1.982   3.200   0.307
 5290TIP3    H239324   2.005   3.227   0.454
 5291TIP3   OH239325   3.366   3.317   1.061
 5291TIP3    H139326   3.273   3.320   1.082
 5291TIP3    H239327   3.389   3.409   1.043
 5292TIP3   OH239328   3.416   2.068   1.201
 5292TIP3    H139329   3.347   2.124   1.166
 5292TIP3    H239330   3.498   2.112   1.176
 5293TIP3   OH239331   2.670   1.898   0.988
 5293TIP3    H139332   2.642   1.806   0.993
 5293TIP3    H239333   2.593   1.948   1.015
 5294TIP3   OH239334   3.194   3.469   0.685
 5294TIP3    H139335   3.235   3.384   0.666
 5294TIP3    H239336   3.268   3.530   0.691
 5295TIP3   OH239337   3.315   3.234   0.619
 5295TIP3    H139338   3.339   3.167   0.555
 5295TIP3    H239339   3.319   3.189   0.703
 5296TIP3   OH239340   3.482   3.108   1.428
 5296TIP3    H139341   3.473   3.052   1.351
 5296TIP3    H239342   3.494   3.196   1.392
 5297TIP3   OH239343   2.933   2.811   0.429
 5297TIP3    H139344   2.874   2.886   0.416
 5297TIP3    H239345   3.018   2.841   0.396
 5298TIP3   OH239346   2.941   2.681   0.145
 5298TIP3    H139347   2.977   2.721   0.224
 5298TIP3    H239348   3.015   2.633   0.107
 5299TIP3   OH239349   3.652   2.784   1.266
 5299TIP3    H139350   3.580   2.846   1.252
 5299TIP3    H239351   3.720   2.811   1.205
 5300TIP3   OH239352   3.310   2.854   0.529
 5300TIP3    H139353   3.236   2.869   0.588
 5300TIP3    H239354   3.372   2.802   0.581
 5301TIP3   OH239355   3.259   2.652   1.467
 5301TIP3    H139356   3.262   2.719   1.535
 5301TIP3    H239357   3.197   2.686   1.402
 5302TIP3   OH239358   2.449   2.883   0.700
 5302TIP3    H139359   2.431   2.842   0.615
 5302TIP3    H239360   2.499   2.817   0.747
 5303TIP3   OH239361   2.606   3.237   0.965
 5303TIP3    H139362   2.613   3.244   0.869
 5303TIP3    H239363   2.680   3.182   0.991
 5304TIP3   OH239364   2.419   2.791   1.071
 5304TIP3    H139365   2.477   2.763   1.000
 5304TIP3    H239366   2.468   2.860   1.116
 5305TIP3   OH239367   3.106   3.327   1.140
 5305TIP3    H139368   3.091   3.399   1.201
 5305TIP3    H239369   3.066   3.251   1.182
 5306TIP3   OH239370   2.588   3.217   1.548
 5306TIP3    H139371   2.525   3.275   1.591
 5306TIP3    H239372   2.548   3.196   1.464
 5307TIP3   OH239373   3.185   2.784   0.298
 5307TIP3    H139374   3.233   2.810   0.376
 5307TIP3    H239375   3.228   2.832   0.226
 5308TIP3   OH239376   2.261   2.806   1.483
 5308TIP3    H139377   2.259   2.884   1.539
 5308TIP3    H239378   2.169   2.790   1.462
 5309TIP3   OH239379   2.935   3.383   0.647
 5309TIP3    H139380   3.023   3.414   0.671
 5309TIP3    H239381   2.900   3.451   0.591
 5310TIP3   OH239382   2.378   3.376   1.624
 5310TIP3    H139383   2.382   3.422   1.539
 5310TIP3    H239384   2.284   3.363   1.638
 5311TIP3   OH239385   3.552   1.925   0.306
 5311TIP3    H139386   3.478   1.985   0.315
 5311TIP3    H239387   3.629   1.981   0.309
 5312TIP3   OH239388   2.359   2.795   0.438
 5312TIP3    H139389   2.300   2.865   0.409
 5312TIP3    H239390   2.302   2.720   0.454
 5313TIP3   OH239391   3.644   3.344   0.119
 5313TIP3    H139392   3.665   3.438   0.121
 5313TIP3    H239393   3.728   3.300   0.110
 5314TIP3   OH239394   1.959   3.043   1.355
 5314TIP3    H139395   1.900   3.052   1.279
 5314TIP3    H239396   1.969   2.949   1.367
 5315TIP3   OH239397   1.923   3.352   1.049
 5315TIP3    H139398   2.000   3.355   1.104
 5315TIP3    H239399   1.875   3.432   1.070
 5316TIP3   OH239400   3.766   3.398   1.647
 5316TIP3    H139401   3.753   3.307   1.620
 5316TIP3    H239402   3.678   3.431   1.663
 5317TIP3   OH239403   2.830   3.344   1.499
 5317TIP3    H139404   2.836   3.429   1.541
 5317TIP3    H239405   2.745   3.309   1.528
 5318TIP3   OH239406   2.897   3.688   0.466
 5318TIP3    H139407   2.897   3.718   0.375
 5318TIP3    H239408   2.881   3.768   0.517
 5319TIP3   OH239409   2.251   3.576   0.668
 5319TIP3    H139410   2.279   3.548   0.755
 5319TIP3    H239411   2.190   3.509   0.640
 5320TIP3   OH239412   3.198   3.620   0.170
 5320TIP3    H139413   3.285   3.587   0.151
 5320TIP3    H239414   3.194   3.624   0.266
 5321TIP3   OH239415   3.165   3.627   0.443
 5321TIP3    H139416   3.072   3.640   0.461
 5321TIP3    H239417   3.197   3.575   0.517
 5322TIP3   OH239418   3.441   2.514   1.642
 5322TIP3    H139419   3.367   2.557   1.597
 5322TIP3    H239420   3.431   2.421   1.620
 5323TIP3   OH239421   2.174   3.199   1.410
 5323TIP3    H139422   2.197   3.155   1.491
 5323TIP3    H239423   2.095   3.154   1.380
 5324TIP3   OH239424   2.432   2.024   1.066
 5324TIP3    H139425   2.355   2.020   1.009
 5324TIP3    H239426   2.414   2.097   1.125
 5325TIP3   OH239427   2.902   2.007   1.403
 5325TIP3    H139428   2.933   1.965   1.483
 5325TIP3    H239429   2.807   2.001   1.408
 5326TIP3   OH239430   3.178   2.383   1.460
 5326TIP3    H139431   3.127   2.370   1.541
 5326TIP3    H239432   3.199   2.476   1.461
 5327TIP3   OH239433   3.314   2.929   0.099
 5327TIP3    H139434   3.290   3.020   0.117
 5327TIP3    H239435   3.408   2.933   0.081
 5328TIP3   OH239436   2.885   2.247   0.138
 5328TIP3    H139437   2.820   2.239   0.208
 5328TIP3    H239438   2.874   2.168   0.085
 5329TIP3   OH239439   2.440   2.535   1.184
 5329TIP3    H139440   2.383   2.532   1.260
 5329TIP3    H239441   2.439   2.627   1.156
 5330TIP3   OH239442   2.446   2.525   0.671
 5330TIP3    H139443   2.351   2.515   0.667
 5330TIP3    H239444   2.476   2.507   0.582
 5331TIP3   OH239445   2.981   2.556   0.519
 5331TIP3    H139446   2.959   2.645   0.492
 5331TIP3    H239447   3.058   2.533   0.467
 5332TIP3   OH239448   2.914   2.599   1.686
 5332TIP3    H139449   2.972   2.526   1.706
 5332TIP3    H239450   2.952   2.674   1.733
 5333TIP3   OH239451   3.037   2.499   0.828
 5333TIP3    H139452   3.039   2.581   0.779
 5333TIP3    H239453   3.081   2.436   0.771
 5334TIP3   OH239454   2.236   2.518   1.373
 5334TIP3    H139455   2.251   2.561   1.458
 5334TIP3    H239456   2.204   2.431   1.396
 5335TIP3   OH239457   2.516   2.285   0.083
 5335TIP3    H139458   2.498   2.242   0.166
 5335TIP3    H239459   2.504   2.379   0.101
 5336TIP3   OH239460   1.933   2.236   0.739
 5336TIP3    H139461   1.948   2.241   0.834
 5336TIP3    H239462   2.008   2.281   0.700
 5337TIP3   OH239463   1.947   2.340   0.251
 5337TIP3    H139464   2.020   2.378   0.203
 5337TIP3    H239465   1.891   2.415   0.273
 5338TIP3   OH239466   3.047   2.675   1.274
 5338TIP3    H139467   3.083   2.612   1.212
 5338TIP3    H239468   2.979   2.627   1.321
 5339TIP3   OH239469   2.723   2.258   0.743
 5339TIP3    H139470   2.634   2.259   0.777
 5339TIP3    H239471   2.775   2.216   0.812
 5340TIP3   OH239472   2.186   2.441   0.638
 5340TIP3    H139473   2.113   2.471   0.584
 5340TIP3    H239474   2.206   2.353   0.604
 5341TIP3   OH239475   2.501   2.447   0.412
 5341TIP3    H139476   2.595   2.445   0.432
 5341TIP3    H239477   2.497   2.492   0.327
 5342TIP3   OH239478   3.202   2.194   1.064
 5342TIP3    H139479   3.141   2.198   1.137
 5342TIP3    H239480   3.162   2.133   1.002
 5343TIP3   OH239481   2.464   2.548   0.156
 5343TIP3    H139482   2.378   2.577   0.126
 5343TIP3    H239483   2.526   2.604   0.110
 5344TIP3   OH239484   3.478   3.759   1.742
 5344TIP3    H139485   3.545   3.826   1.726
 5344TIP3    H239486   3.454   3.771   1.834
 5345TIP3   OH239487   2.240   3.057   1.648
 5345TIP3    H139488   2.329   3.066   1.683
 5345TIP3    H239489   2.192   3.131   1.686
 5346TIP3   OH239490   2.801   2.573   0.966
 5346TIP3    H139491   2.873   2.529   0.921
 5346TIP3    H239492   2.778   2.514   1.038
 5347TIP3   OH239493   2.272   2.179   0.593
 5347TIP3    H139494   2.225   2.101   0.624
 5347TIP3    H239495   2.311   2.151   0.510
 5348TIP3   OH239496   2.703   2.439   1.200
 5348TIP3    H139497   2.618   2.484   1.201
 5348TIP3    H239498   2.752   2.479   1.272
 5349TIP3   OH239499   2.758   3.018   0.360
 5349TIP3    H139500   2.682   2.976   0.318
 5349TIP3    H239501   2.726   3.045   0.446
 5350TIP3   OH239502   3.456   2.965   1.194
 5350TIP3    H139503   3.513   3.021   1.142
 5350TIP3    H239504   3.380   2.950   1.138
 5351TIP3   OH239505   3.151   2.271   0.226
 5351TIP3    H139506   3.067   2.277   0.181
 5351TIP3    H239507   3.172   2.361   0.251
 5352TIP3   OH239508   2.887   3.059   1.497
 5352TIP3    H139509   2.919   3.031   1.582
 5352TIP3    H239510   2.868   3.152   1.507
 5353TIP3   OH239511   3.205   2.512   0.356
 5353TIP3    H139512   3.288   2.498   0.402
 5353TIP3    H239513   3.208   2.603   0.326
 5354TIP3   OH239514   2.259   2.940   0.892
 5354TIP3    H139515   2.322   2.936   0.820
 5354TIP3    H239516   2.301   2.891   0.962
 5355TIP3   OH239517   2.977   3.161   0.266
 5355TIP3    H139518   2.940   3.246   0.289
 5355TIP3    H239519   2.910   3.097   0.290
 5356TIP3   OH239520   1.979   2.771   1.441
 5356TIP3    H139521   1.950   2.719   1.516
 5356TIP3    H239522   1.909   2.763   1.377
 5357TIP3   OH239523   2.669   2.765   1.689
 5357TIP3    H139524   2.611   2.721   1.627
 5357TIP3    H239525   2.749   2.712   1.689
 5358TIP3   OH239526   3.109   3.314   1.505
 5358TIP3    H139527   3.020   3.329   1.475
 5358TIP3    H239528   3.107   3.336   1.598
 5359TIP3   OH239529   3.649   2.546   0.321
 5359TIP3    H139530   3.581   2.520   0.258
 5359TIP3    H239531   3.676   2.633   0.292
 5360TIP3   OH239532   3.722   3.128   1.559
 5360TIP3    H139533   3.631   3.123   1.531
 5360TIP3    H239534   3.772   3.111   1.479
 5361TIP3   OH239535   3.493   3.383   0.351
 5361TIP3    H139536   3.465   3.302   0.394
 5361TIP3    H239537   3.546   3.354   0.277
 5362TIP3   OH239538   3.239   2.895   1.023
 5362TIP3    H139539   3.144   2.883   1.017
 5362TIP3    H239540   3.275   2.815   0.986
 5363TIP3   OH239541   2.524   3.312   0.693
 5363TIP3    H139542   2.541   3.396   0.649
 5363TIP3    H239543   2.437   3.322   0.731
 5364TIP3   OH239544   2.082   2.806   0.142
 5364TIP3    H139545   2.119   2.860   0.211
 5364TIP3    H239546   1.988   2.804   0.161
 5365TIP3   OH239547   2.617   3.075   0.585
 5365TIP3    H139548   2.597   3.162   0.620
 5365TIP3    H239549   2.562   3.015   0.636
 5366TIP3   OH239550   2.713   3.495   1.289
 5366TIP3    H139551   2.770   3.570   1.269
 5366TIP3    H239552   2.766   3.440   1.347
 5367TIP3   OH239553   2.510   3.578   0.572
 5367TIP3    H139554   2.418   3.584   0.596
 5367TIP3    H239555   2.550   3.655   0.612
 5368TIP3   OH239556   3.008   3.088   1.252
 5368TIP3    H139557   2.969   3.075   1.338
 5368TIP3    H239558   3.087   3.034   1.253
 5369TIP3   OH239559   3.247   3.187   0.183
 5369TIP3    H139560   3.296   3.165   0.263
 5369TIP3    H239561   3.155   3.184   0.210
 5370TIP3   OH239562   3.323   3.503   1.451
 5370TIP3    H139563   3.238   3.458   1.452
 5370TIP3    H239564   3.308   3.581   1.399
 5371TIP3   OH239565   3.706   3.610   0.147
 5371TIP3    H139566   3.772   3.654   0.092
 5371TIP3    H239567   3.660   3.682   0.189
 5372TIP3   OH239568   2.140   2.255   1.450
 5372TIP3    H139569   2.070   2.300   1.497
 5372TIP3    H239570   2.148   2.170   1.494
 5373TIP3   OH239571   3.403   3.073   0.391
 5373TIP3    H139572   3.363   2.999   0.436
 5373TIP3    H239573   3.496   3.053   0.387
 5374TIP3   OH239574   2.104   3.433   1.251
 5374TIP3    H139575   2.145   3.365   1.303
 5374TIP3    H239576   2.039   3.473   1.310
 5375TIP3   OH239577   2.545   3.257   0.266
 5375TIP3    H139578   2.618   3.212   0.308
 5375TIP3    H239579   2.562   3.350   0.281
 5376TIP3   OH239580   2.189   2.984   0.324
 5376TIP3    H139581   2.117   3.028   0.369
 5376TIP3    H239582   2.236   3.054   0.278
 5377TIP3   OH239583   3.049   2.216   1.282
 5377TIP3    H139584   3.092   2.268   1.349
 5377TIP3    H239585   2.997   2.152   1.330
 5378TIP3   OH239586   3.096   2.172   0.481
 5378TIP3    H139587   3.109   2.216   0.396
 5378TIP3    H239588   3.132   2.234   0.545
 5379TIP3   OH239589   2.840   3.385   0.334
 5379TIP3    H139590   2.761   3.435   0.356
 5379TIP3    H239591   2.883   3.437   0.266
 5380TIP3   OH239592   2.754   2.406   0.513
 5380TIP3    H139593   2.833   2.460   0.516
 5380TIP3    H239594   2.747   2.367   0.600
 5381TIP3   OH239595   2.874   2.508   1.418
 5381TIP3    H139596   2.870   2.547   1.505
 5381TIP3    H239597   2.909   2.420   1.433
 5382TIP3   OH239598   2.852   2.074   0.571
 5382TIP3    H139599   2.820   2.138   0.635
 5382TIP3    H239600   2.939   2.107   0.547
 5383TIP3   OH239601   2.594   3.522   0.315
 5383TIP3    H139602   2.609   3.605   0.270
 5383TIP3    H239603   2.564   3.547   0.402
 5384TIP3   OH239604   2.435   2.188   0.332
 5384TIP3    H139605   2.431   2.276   0.368
 5384TIP3    H239606   2.524   2.159   0.349
 5385TIP3   OH239607   3.422   2.263   1.523
 5385TIP3    H139608   3.339   2.287   1.483
 5385TIP3    H239609   3.486   2.276   1.453
 5386TIP3   OH239610   3.329   2.640   0.936
 5386TIP3    H139611   3.253   2.602   0.982
 5386TIP3    H239612   3.404   2.593   0.972
 5387TIP3   OH239613   2.288   3.199   0.172
 5387TIP3    H139614   2.350   3.244   0.229
 5387TIP3    H239615   2.342   3.154   0.108
 5388TIP3   OH239616   2.114   2.531   0.100
 5388TIP3    H139617   2.105   2.625   0.115
 5388TIP3    H239618   2.081   2.518   0.011
 5389TIP3   OH239619   3.449   3.583   1.054
 5389TIP3    H139620   3.438   3.652   0.988
 5389TIP3    H239621   3.542   3.584   1.074
 5390TIP3   OH239622   2.181   1.997   0.947
 5390TIP3    H139623   2.170   1.986   0.853
 5390TIP3    H239624   2.151   1.915   0.985
 5391TIP3   OH239625   2.043   3.384   0.549
 5391TIP3    H139626   2.000   3.420   0.626
 5391TIP3    H239627   2.029   3.451   0.481
 5392TIP3   OH239628   1.972   3.664   1.748
 5392TIP3    H139629   1.952   3.645   1.839
 5392TIP3    H239630   1.942   3.588   1.700
 5393TIP3   OH239631   2.432   3.526   1.856
 5393TIP3    H139632   2.526   3.533   1.876
 5393TIP3    H239633   2.428   3.471   1.778
 5394TIP3   OH239634   2.953   3.507   0.121
 5394TIP3    H139635   2.934   3.469   0.036
 5394TIP3    H239636   3.046   3.529   0.118
 5395TIP3   OH239637   3.085   3.362   1.776
 5395TIP3    H139638   3.065   3.277   1.816
 5395TIP3    H239639   3.158   3.396   1.827
 5396TIP3   OH239640   3.360   3.409   0.036
 5396TIP3    H139641   3.325   3.351   0.102
 5396TIP3    H239642   3.455   3.405   0.047
 5397TIP3   OH239643   2.460   3.032   0.033
 5397TIP3    H139644   2.495   3.003   0.117
 5397TIP3    H239645   2.494   2.968  -0.030
 5398TIP3   OH239646   2.645   3.046   1.761
 5398TIP3    H139647   2.638   3.083   1.673
 5398TIP3    H239648   2.659   2.952   1.747
 5399TIP3   OH239649   3.228   3.060   1.524
 5399TIP3    H139650   3.318   3.079   1.497
 5399TIP3    H239651   3.182   3.143   1.514
 5400TIP3   OH239652   2.549   2.871   0.245
 5400TIP3    H139653   2.491   2.844   0.317
 5400TIP3    H239654   2.597   2.792   0.222
 5401TIP3   OH239655   2.506   2.654   1.481
 5401TIP3    H139656   2.426   2.707   1.481
 5401TIP3    H239657   2.567   2.702   1.424
 5402TIP3   OH239658   2.690   2.669   0.044
 5402TIP3    H139659   2.713   2.604  -0.024
 5402TIP3    H239660   2.772   2.685   0.090
 5403TIP3   OH239661   3.030   2.820   1.838
 5403TIP3    H139662   3.123   2.829   1.817
 5403TIP3    H239663   3.028   2.788   1.928
 5404TIP3   OH239664   3.590   2.983   0.007
 5404TIP3    H139665   3.554   3.015  -0.076
 5404TIP3    H239666   3.635   3.059   0.044
 5405TIP3   OH239667   2.516   2.396   1.582
 5405TIP3    H139668   2.549   2.333   1.519
 5405TIP3    H239669   2.525   2.481   1.539
 5406TIP3   OH239670   2.580   2.230   1.350
 5406TIP3    H139671   2.631   2.286   1.292
 5406TIP3    H239672   2.491   2.232   1.314
 5407TIP3   OH239673   2.688   2.799   1.339
 5407TIP3    H139674   2.766   2.841   1.376
 5407TIP3    H239675   2.646   2.868   1.287
 5408TIP3   OH239676   3.194   2.488   1.816
 5408TIP3    H139677   3.285   2.458   1.818
 5408TIP3    H239678   3.193   2.562   1.878
 5409TIP3   OH239679   3.293   2.841   1.676
 5409TIP3    H139680   3.261   2.919   1.629
 5409TIP3    H239681   3.388   2.848   1.671
 5410TIP3   OH239682   2.273   2.492   1.674
 5410TIP3    H139683   2.240   2.427   1.736
 5410TIP3    H239684   2.361   2.461   1.653
 5411TIP3   OH239685   2.627   1.961   1.393
 5411TIP3    H139686   2.607   2.054   1.384
 5411TIP3    H239687   2.552   1.916   1.354
 5412TIP3   OH239688   3.011   2.307   1.667
 5412TIP3    H139689   2.943   2.247   1.696
 5412TIP3    H239690   3.078   2.302   1.735
 5413TIP3   OH239691   3.196   2.132   1.859
 5413TIP3    H139692   3.225   2.047   1.827
 5413TIP3    H239693   3.123   2.112   1.918
 5414TIP3   OH239694   2.164   2.289   1.837
 5414TIP3    H139695   2.194   2.203   1.807
 5414TIP3    H239696   2.193   2.294   1.928
 5415TIP3   OH239697   2.707   1.874   1.644
 5415TIP3    H139698   2.639   1.822   1.687
 5415TIP3    H239699   2.672   1.892   1.557
 5416TIP3   OH239700   2.717   2.093   1.811
 5416TIP3    H139701   2.734   2.018   1.754
 5416TIP3    H239702   2.639   2.068   1.861
 5417TIP3   OH239703   2.657   3.738   0.155
 5417TIP3    H139704   2.744   3.770   0.179
 5417TIP3    H239705   2.654   3.747   0.060
 5418TIP3   OH239706   2.010   3.216   0.101
 5418TIP3    H139707   2.103   3.222   0.124
 5418TIP3    H239708   2.009   3.199   0.007
 5419TIP3   OH239709   1.891   3.704   0.645
 5419TIP3    H139710   1.826   3.669   0.584
 5419TIP3    H239711   1.910   3.631   0.704
 5420TIP3   OH239712   1.978   3.499   0.810
 5420TIP3    H139713   1.944   3.425   0.861
 5420TIP3    H239714   2.026   3.552   0.874
 5421TIP3   OH239715   3.714   3.602   1.127
 5421TIP3    H139716   3.700   3.599   1.222
 5421TIP3    H239717   3.775   3.675   1.114
 5422TIP3   OH239718   3.657   3.567   1.393
 5422TIP3    H139719   3.612   3.486   1.371
 5422TIP3    H239720   3.705   3.547   1.474
 5423TIP3   OH239721   3.666   2.982   0.405
 5423TIP3    H139722   3.736   3.046   0.411
 5423TIP3    H239723   3.678   2.926   0.481
 5424TIP3   OH239724   3.702   2.799   0.610
 5424TIP3    H139725   3.622   2.766   0.652
 5424TIP3    H239726   3.755   2.831   0.683
 5425TIP3   OH239727   3.659   3.101   1.072
 5425TIP3    H139728   3.734   3.043   1.069
 5425TIP3    H239729   3.696   3.189   1.060
 5426TIP3   OH239730   3.502   3.352   1.308
 5426TIP3    H139731   3.432   3.402   1.351
 5426TIP3    H239732   3.468   3.335   1.220
 5427TIP3   OH239733   3.700   2.802   0.201
 5427TIP3    H139734   3.652   2.847   0.132
 5427TIP3    H239735   3.691   2.859   0.278
 5428TIP3   OH239736   3.479   2.499   0.104
 5428TIP3    H139737   3.558   2.523   0.056
 5428TIP3    H239738   3.459   2.409   0.075
 5429TIP3   OH239739   3.454   2.677   0.687
 5429TIP3    H139740   3.445   2.589   0.651
 5429TIP3    H239741   3.412   2.673   0.773
 5430TIP3   OH239742   1.956   2.868   1.066
 5430TIP3    H139743   1.966   2.851   0.972
 5430TIP3    H239744   2.032   2.826   1.106
 5431TIP3   OH239745   3.571   2.863   1.665
 5431TIP3    H139746   3.613   2.780   1.689
 5431TIP3    H239747   3.626   2.900   1.597
 5432TIP3   OH239748   3.680   2.612   1.712
 5432TIP3    H139749   3.593   2.579   1.689
 5432TIP3    H239750   3.739   2.539   1.697
 5433TIP3   OH239751   3.423   2.244   0.021
 5433TIP3    H139752   3.501   2.201   0.055
 5433TIP3    H239753   3.353   2.214   0.079
 5434TIP3   OH239754   3.433   2.442   0.509
 5434TIP3    H139755   3.446   2.348   0.518
 5434TIP3    H239756   3.513   2.473   0.466
 5435TIP3   OH239757   3.512   2.476   1.054
 5435TIP3    H139758   3.607   2.475   1.043
 5435TIP3    H239759   3.498   2.493   1.147
 5436TIP3   OH239760   3.501   2.563   1.322
 5436TIP3    H139761   3.426   2.597   1.371
 5436TIP3    H239762   3.555   2.639   1.305
 5437TIP3   OH239763   1.952   2.344   1.648
 5437TIP3    H139764   2.022   2.336   1.712
 5437TIP3    H239765   1.885   2.281   1.677
 5438TIP3   OH239766   3.710   1.962   1.863
 5438TIP3    H139767   3.782   1.904   1.839
 5438TIP3    H239768   3.707   2.028   1.794
 5439TIP3   OH239769   3.451   2.169   0.539
 5439TIP3    H139770   3.504   2.130   0.608
 5439TIP3    H239771   3.398   2.096   0.506
 5440TIP3   OH239772   2.044   2.235   0.994
 5440TIP3    H139773   2.086   2.149   0.991
 5440TIP3    H239774   2.116   2.296   1.010
 5441TIP3   OH239775   1.908   2.537   1.058
 5441TIP3    H139776   1.974   2.541   0.988
 5441TIP3    H239777   1.949   2.584   1.131
 5442TIP3   OH239778   3.622   2.131   1.656
 5442TIP3    H139779   3.547   2.188   1.640
 5442TIP3    H239780   3.631   2.081   1.576
 5443TIP3   OH239781   3.660   2.150   0.123
 5443TIP3    H139782   3.713   2.124   0.048
 5443TIP3    H239783   3.717   2.208   0.174
 5444TIP3   OH239784   1.930   2.132   0.437
 5444TIP3    H139785   1.891   2.162   0.519
 5444TIP3    H239786   1.938   2.211   0.384
 5445TIP3   OH239787   3.386   3.655   0.669
 5445TIP3    H139788   3.467   3.644   0.619
 5445TIP3    H239789   3.412   3.709   0.744
 5446TIP3   OH239790   1.880   1.967   1.282
 5446TIP3    H139791   1.816   1.963   1.354
 5446TIP3    H239792   1.856   2.046   1.233
 5447TIP3   OH239793   2.122   3.299   1.726
 5447TIP3    H139794   2.040   3.322   1.681
 5447TIP3    H239795   2.119   3.348   1.808
 5448TIP3   OH239796   2.450   3.473   1.367
 5448TIP3    H139797   2.414   3.557   1.336
 5448TIP3    H239798   2.544   3.481   1.352
 5449TIP3   OH239799   2.858   3.602   1.598
 5449TIP3    H139800   2.855   3.579   1.691
 5449TIP3    H239801   2.938   3.654   1.589
 5450TIP3   OH239802   3.079   3.772   1.605
 5450TIP3    H139803   3.169   3.744   1.591
 5450TIP3    H239804   3.080   3.817   1.689
 5451TIP3   OH239805   3.596   1.980   1.431
 5451TIP3    H139806   3.521   1.989   1.373
 5451TIP3    H239807   3.615   1.886   1.431
 5452TIP3   OH239808   2.157   3.792   1.353
 5452TIP3    H139809   2.070   3.813   1.317
 5452TIP3    H239810   2.152   3.821   1.444
 5453TIP3   OH239811   2.408   3.728   1.273
 5453TIP3    H139812   2.320   3.748   1.305
 5453TIP3    H239813   2.418   3.785   1.196
 5454TIP3   OH239814   2.864   3.706   1.187
 5454TIP3    H139815   2.811   3.746   1.118
 5454TIP3    H239816   2.882   3.778   1.248
 5455TIP3   OH239817   3.081   3.562   1.279
 5455TIP3    H139818   3.004   3.611   1.248
 5455TIP3    H239819   3.153   3.625   1.272
 5456TIP3   OH239820   3.314   3.712   1.260
 5456TIP3    H139821   3.340   3.803   1.241
 5456TIP3    H239822   3.361   3.660   1.194
 5457TIP3   OH239823   2.134   3.603   1.025
 5457TIP3    H139824   2.119   3.563   1.111
 5457TIP3    H239825   2.214   3.561   0.993
 5458TIP3   OH239826   2.349   3.480   0.907
 5458TIP3    H139827   2.330   3.389   0.933
 5458TIP3    H239828   2.430   3.501   0.952
 5459TIP3   OH239829   2.592   3.508   1.039
 5459TIP3    H139830   2.606   3.417   1.012
 5459TIP3    H239831   2.624   3.511   1.129
 5460TIP3   OH239832   2.858   2.089   0.903
 5460TIP3    H139833   2.809   2.018   0.944
 5460TIP3    H239834   2.949   2.060   0.904
 5461TIP3   OH239835   3.429   1.926   0.893
 5461TIP3    H139836   3.497   1.976   0.846
 5461TIP3    H239837   3.380   1.992   0.941
 5462TIP3   OH239838   3.616   2.035   0.723
 5462TIP3    H139839   3.677   1.963   0.712
 5462TIP3    H239840   3.671   2.113   0.723
 5463TIP3   OH239841   2.147   1.944   0.677
 5463TIP3    H139842   2.056   1.924   0.653
 5463TIP3    H239843   2.193   1.861   0.667
 5464TIP3   OH239844   2.045   1.939   0.281
 5464TIP3    H139845   2.089   2.001   0.224
 5464TIP3    H239846   1.995   1.994   0.342
 5465TIP3   OH239847   2.644   1.915   0.696
 5465TIP3    H139848   2.715   1.966   0.658
 5465TIP3    H239849   2.658   1.921   0.790
 5466TIP3   OH239850   3.123   2.011   0.873
 5466TIP3    H139851   3.161   2.025   0.786
 5466TIP3    H239852   3.109   1.917   0.879
 5467TIP3   OH239853   3.288   1.969   0.420
 5467TIP3    H139854   3.227   2.042   0.408
 5467TIP3    H239855   3.238   1.905   0.471
 5468TIP3   OH239856   2.012   3.563   0.341
 5468TIP3    H139857   1.941   3.562   0.276
 5468TIP3    H239858   2.033   3.656   0.352
 5469TIP3   OH239859   2.227   2.073   0.118
 5469TIP3    H139860   2.259   1.982   0.117
 5469TIP3    H239861   2.285   2.118   0.178
 5470TIP3   OH239862   2.714   2.185   0.355
 5470TIP3    H139863   2.755   2.121   0.413
 5470TIP3    H239864   2.727   2.269   0.400
 5471TIP3   OH239865   2.931   3.768   0.201
 5471TIP3    H139866   3.023   3.793   0.190
 5471TIP3    H239867   2.927   3.677   0.169
 5472TIP3   OH239868   3.590   3.605   0.486
 5472TIP3    H139869   3.558   3.524   0.447
 5472TIP3    H239870   3.591   3.668   0.414
 5473TIP3   OH239871   2.133   2.018   1.604
 5473TIP3    H139872   2.059   2.000   1.663
 5473TIP3    H239873   2.211   1.998   1.656
 5474TIP3   OH239874   2.318   1.947   1.791
 5474TIP3    H139875   2.394   1.889   1.787
 5474TIP3    H239876   2.258   1.903   1.851
 5475TIP3   OH239877   2.231   3.662   0.117
 5475TIP3    H139878   2.160   3.692   0.173
 5475TIP3    H239879   2.245   3.571   0.142
 5476TIP3   OH239880   3.511   3.499   1.660
 5476TIP3    H139881   3.445   3.494   1.591
 5476TIP3    H239882   3.503   3.588   1.695
 5477TIP3   OH239883   4.965   2.905   0.667
 5477TIP3    H139884   4.939   2.996   0.678
 5477TIP3    H239885   4.902   2.869   0.605
 5478TIP3   OH239886   4.836   2.820   1.038
 5478TIP3    H139887   4.852   2.777   1.122
 5478TIP3    H239888   4.794   2.753   0.984
 5479TIP3   OH239889   4.065   2.745   1.201
 5479TIP3    H139890   4.074   2.687   1.277
 5479TIP3    H239891   4.151   2.787   1.193
 5480TIP3   OH239892   5.209   3.100   0.864
 5480TIP3    H139893   5.166   3.028   0.909
 5480TIP3    H239894   5.287   3.119   0.916
 5481TIP3   OH239895   4.202   3.228   0.972
 5481TIP3    H139896   4.168   3.140   0.953
 5481TIP3    H239897   4.291   3.213   1.004
 5482TIP3   OH239898   3.838   2.562   0.527
 5482TIP3    H139899   3.814   2.644   0.570
 5482TIP3    H239900   3.770   2.551   0.460
 5483TIP3   OH239901   3.885   2.870   0.807
 5483TIP3    H139902   3.924   2.789   0.839
 5483TIP3    H239903   3.957   2.934   0.811
 5484TIP3   OH239904   4.929   3.612   0.884
 5484TIP3    H139905   4.909   3.560   0.806
 5484TIP3    H239906   4.846   3.653   0.908
 5485TIP3   OH239907   4.693   3.066   1.067
 5485TIP3    H139908   4.731   2.985   1.031
 5485TIP3    H239909   4.760   3.098   1.128
 5486TIP3   OH239910   5.557   2.210   1.156
 5486TIP3    H139911   5.576   2.267   1.231
 5486TIP3    H239912   5.631   2.222   1.097
 5487TIP3   OH239913   5.012   2.498   1.076
 5487TIP3    H139914   5.044   2.410   1.095
 5487TIP3    H239915   4.985   2.496   0.984
 5488TIP3   OH239916   4.405   2.265   0.797
 5488TIP3    H139917   4.382   2.352   0.763
 5488TIP3    H239918   4.347   2.206   0.750
 5489TIP3   OH239919   5.122   2.346   0.668
 5489TIP3    H139920   5.175   2.322   0.743
 5489TIP3    H239921   5.184   2.384   0.605
 5490TIP3   OH239922   3.999   2.667   0.940
 5490TIP3    H139923   4.046   2.671   1.023
 5490TIP3    H239924   4.017   2.579   0.907
 5491TIP3   OH239925   4.452   2.675   0.852
 5491TIP3    H139926   4.540   2.645   0.875
 5491TIP3    H239927   4.419   2.609   0.791
 5492TIP3   OH239928   5.612   2.362   1.385
 5492TIP3    H139929   5.537   2.420   1.372
 5492TIP3    H239930   5.634   2.374   1.477
 5493TIP3   OH239931   4.211   2.192   1.269
 5493TIP3    H139932   4.188   2.258   1.203
 5493TIP3    H239933   4.145   2.204   1.338
 5494TIP3   OH239934   4.891   3.170   0.587
 5494TIP3    H139935   4.883   3.168   0.492
 5494TIP3    H239936   4.980   3.201   0.603
 5495TIP3   OH239937   4.459   2.993   1.194
 5495TIP3    H139938   4.411   3.067   1.231
 5495TIP3    H239939   4.535   3.032   1.152
 5496TIP3   OH239940   5.304   2.309   0.871
 5496TIP3    H139941   5.366   2.236   0.879
 5496TIP3    H239942   5.336   2.374   0.933
 5497TIP3   OH239943   4.252   2.348   1.042
 5497TIP3    H139944   4.261   2.436   1.079
 5497TIP3    H239945   4.181   2.356   0.978
 5498TIP3   OH239946   4.319   3.205   1.304
 5498TIP3    H139947   4.329   3.300   1.302
 5498TIP3    H239948   4.230   3.190   1.334
 5499TIP3   OH239949   3.877   3.162   0.396
 5499TIP3    H139950   3.880   3.205   0.310
 5499TIP3    H239951   3.900   3.231   0.458
 5500TIP3   OH239952   5.270   3.307   1.072
 5500TIP3    H139953   5.181   3.280   1.095
 5500TIP3    H239954   5.265   3.327   0.978
 5501TIP3   OH239955   5.299   2.120   1.229
 5501TIP3    H139956   5.237   2.171   1.176
 5501TIP3    H239957   5.385   2.146   1.196
 5502TIP3   OH239958   4.557   1.881   0.974
 5502TIP3    H139959   4.535   1.789   0.984
 5502TIP3    H239960   4.487   1.928   1.019
 5503TIP3   OH239961   5.175   3.422   0.833
 5503TIP3    H139962   5.151   3.357   0.768
 5503TIP3    H239963   5.220   3.490   0.784
 5504TIP3   OH239964   5.152   3.229   0.632
 5504TIP3    H139965   5.202   3.193   0.559
 5504TIP3    H239966   5.177   3.175   0.707
 5505TIP3   OH239967   5.365   3.128   1.435
 5505TIP3    H139968   5.362   3.063   1.364
 5505TIP3    H239969   5.389   3.210   1.392
 5506TIP3   OH239970   4.825   2.831   0.440
 5506TIP3    H139971   4.758   2.896   0.417
 5506TIP3    H239972   4.888   2.834   0.369
 5507TIP3   OH239973   4.840   2.669   0.135
 5507TIP3    H139974   4.909   2.710   0.188
 5507TIP3    H239975   4.881   2.591   0.098
 5508TIP3   OH239976   5.538   2.778   1.261
 5508TIP3    H139977   5.468   2.843   1.257
 5508TIP3    H239978   5.595   2.799   1.186
 5509TIP3   OH239979   5.185   2.844   0.517
 5509TIP3    H139980   5.116   2.863   0.581
 5509TIP3    H239981   5.247   2.788   0.564
 5510TIP3   OH239982   5.146   2.627   1.439
 5510TIP3    H139983   5.161   2.690   1.509
 5510TIP3    H239984   5.087   2.673   1.378
 5511TIP3   OH239985   4.323   2.876   0.701
 5511TIP3    H139986   4.302   2.839   0.615
 5511TIP3    H239987   4.372   2.808   0.745
 5512TIP3   OH239988   4.490   3.244   0.969
 5512TIP3    H139989   4.488   3.244   0.873
 5512TIP3    H239990   4.564   3.188   0.991
 5513TIP3   OH239991   4.315   2.798   1.066
 5513TIP3    H139992   4.367   2.765   0.993
 5513TIP3    H239993   4.370   2.865   1.106
 5514TIP3   OH239994   5.010   3.330   1.155
 5514TIP3    H139995   4.990   3.382   1.233
 5514TIP3    H239996   4.971   3.245   1.173
 5515TIP3   OH239997   4.475   3.220   1.538
 5515TIP3    H139998   4.409   3.273   1.581
 5515TIP3    H239999   4.436   3.195   1.454
 5516TIP3   OH240000   5.057   2.780   0.282
 5516TIP3    H140001   5.104   2.802   0.362
 5516TIP3    H240002   5.105   2.826   0.213
 5517TIP3   OH240003   4.183   2.796   1.522
 5517TIP3    H140004   4.192   2.890   1.541
 5517TIP3    H240005   4.118   2.765   1.585
 5518TIP3   OH240006   4.848   3.455   0.666
 5518TIP3    H140007   4.838   3.360   0.660
 5518TIP3    H240008   4.819   3.487   0.581
 5519TIP3   OH240009   4.277   3.383   1.627
 5519TIP3    H140010   4.268   3.427   1.542
 5519TIP3    H240011   4.187   3.367   1.655
 5520TIP3   OH240012   5.453   1.918   0.290
 5520TIP3    H140013   5.366   1.947   0.316
 5520TIP3    H240014   5.510   1.993   0.311
 5521TIP3   OH240015   4.244   2.789   0.440
 5521TIP3    H140016   4.177   2.850   0.408
 5521TIP3    H240017   4.199   2.705   0.446
 5522TIP3   OH240018   5.519   3.352   0.119
 5522TIP3    H140019   5.544   3.444   0.126
 5522TIP3    H240020   5.602   3.306   0.102
 5523TIP3   OH240021   3.874   3.030   1.349
 5523TIP3    H140022   3.863   3.001   1.258
 5523TIP3    H240023   3.867   2.950   1.400
 5524TIP3   OH240024   3.804   3.346   1.055
 5524TIP3    H140025   3.884   3.344   1.107
 5524TIP3    H240026   3.760   3.427   1.081
 5525TIP3   OH240027   5.661   3.385   1.665
 5525TIP3    H140028   5.631   3.296   1.644
 5525TIP3    H240029   5.581   3.438   1.662
 5526TIP3   OH240030   4.709   3.366   1.518
 5526TIP3    H140031   4.710   3.442   1.576
 5526TIP3    H240032   4.625   3.324   1.536
 5527TIP3   OH240033   4.814   3.713   0.481
 5527TIP3    H140034   4.801   3.735   0.388
 5527TIP3    H240035   4.781   3.789   0.528
 5528TIP3   OH240036   4.138   3.571   0.672
 5528TIP3    H140037   4.163   3.545   0.761
 5528TIP3    H240038   4.080   3.501   0.641
 5529TIP3   OH240039   5.091   3.627   0.159
 5529TIP3    H140040   5.163   3.567   0.135
 5529TIP3    H240041   5.095   3.632   0.255
 5530TIP3   OH240042   5.075   3.634   0.440
 5530TIP3    H140043   4.983   3.649   0.463
 5530TIP3    H240044   5.108   3.577   0.510
 5531TIP3   OH240045   5.371   2.519   1.624
 5531TIP3    H140046   5.281   2.553   1.626
 5531TIP3    H240047   5.362   2.427   1.600
 5532TIP3   OH240048   4.069   3.212   1.418
 5532TIP3    H140049   4.092   3.184   1.507
 5532TIP3    H240050   3.998   3.152   1.392
 5533TIP3   OH240051   4.338   2.056   1.070
 5533TIP3    H140052   4.266   2.034   1.011
 5533TIP3    H240053   4.296   2.098   1.145
 5534TIP3   OH240054   4.823   1.985   1.394
 5534TIP3    H140055   4.867   1.942   1.468
 5534TIP3    H240056   4.730   1.967   1.408
 5535TIP3   OH240057   5.064   2.365   1.477
 5535TIP3    H140058   5.011   2.362   1.556
 5535TIP3    H240059   5.090   2.457   1.469
 5536TIP3   OH240060   5.191   2.925   0.091
 5536TIP3    H140061   5.170   3.017   0.106
 5536TIP3    H240062   5.283   2.925   0.067
 5537TIP3   OH240063   4.781   2.272   0.122
 5537TIP3    H140064   4.707   2.239   0.174
 5537TIP3    H240065   4.761   2.245   0.033
 5538TIP3   OH240066   4.341   2.552   1.197
 5538TIP3    H140067   4.281   2.552   1.271
 5538TIP3    H240068   4.341   2.643   1.167
 5539TIP3   OH240069   4.340   2.500   0.664
 5539TIP3    H140070   4.246   2.490   0.652
 5539TIP3    H240071   4.377   2.492   0.576
 5540TIP3   OH240072   4.880   2.581   0.540
 5540TIP3    H140073   4.858   2.668   0.507
 5540TIP3    H240074   4.950   2.550   0.483
 5541TIP3   OH240075   4.772   2.594   1.717
 5541TIP3    H140076   4.739   2.516   1.761
 5541TIP3    H240077   4.866   2.594   1.736
 5542TIP3   OH240078   4.948   2.517   0.809
 5542TIP3    H140079   4.932   2.579   0.738
 5542TIP3    H240080   5.000   2.447   0.769
 5543TIP3   OH240081   4.122   2.520   1.376
 5543TIP3    H140082   4.149   2.550   1.463
 5543TIP3    H240083   4.073   2.440   1.392
 5544TIP3   OH240084   4.401   2.289   0.089
 5544TIP3    H140085   4.391   2.251   0.176
 5544TIP3    H240086   4.402   2.383   0.103
 5545TIP3   OH240087   3.793   2.236   0.669
 5545TIP3    H140088   3.764   2.326   0.676
 5545TIP3    H240089   3.878   2.234   0.712
 5546TIP3   OH240090   3.824   2.322   0.266
 5546TIP3    H140091   3.904   2.358   0.229
 5546TIP3    H240092   3.776   2.399   0.298
 5547TIP3   OH240093   4.888   2.664   1.260
 5547TIP3    H140094   4.941   2.603   1.207
 5547TIP3    H240095   4.844   2.608   1.324
 5548TIP3   OH240096   4.666   2.247   0.724
 5548TIP3    H140097   4.573   2.248   0.745
 5548TIP3    H240098   4.706   2.198   0.796
 5549TIP3   OH240099   4.088   2.442   0.555
 5549TIP3    H140100   4.004   2.484   0.541
 5549TIP3    H240101   4.076   2.388   0.634
 5550TIP3   OH240102   4.415   2.463   0.398
 5550TIP3    H140103   4.509   2.458   0.419
 5550TIP3    H240104   4.413   2.507   0.313
 5551TIP3   OH240105   5.066   2.222   1.087
 5551TIP3    H140106   5.001   2.212   1.157
 5551TIP3    H240107   5.045   2.153   1.024
 5552TIP3   OH240108   4.385   2.565   0.130
 5552TIP3    H140109   4.309   2.583   0.074
 5552TIP3    H240110   4.458   2.608   0.086
 5553TIP3   OH240111   5.343   3.774   1.754
 5553TIP3    H140112   5.386   3.816   1.680
 5553TIP3    H240113   5.386   3.811   1.831
 5554TIP3   OH240114   4.152   3.049   1.650
 5554TIP3    H140115   4.207   3.070   1.725
 5554TIP3    H240116   4.064   3.039   1.686
 5555TIP3   OH240117   4.704   2.569   0.937
 5555TIP3    H140118   4.779   2.545   0.882
 5555TIP3    H240119   4.721   2.527   1.021
 5556TIP3   OH240120   4.235   2.138   0.624
 5556TIP3    H140121   4.163   2.078   0.642
 5556TIP3    H240122   4.239   2.145   0.529
 5557TIP3   OH240123   4.561   2.380   1.199
 5557TIP3    H140124   4.503   2.456   1.210
 5557TIP3    H240125   4.638   2.401   1.251
 5558TIP3   OH240126   4.635   3.023   0.367
 5558TIP3    H140127   4.564   2.979   0.320
 5558TIP3    H240128   4.598   3.045   0.452
 5559TIP3   OH240129   5.348   2.975   1.204
 5559TIP3    H140130   5.408   3.026   1.149
 5559TIP3    H240131   5.275   2.953   1.146
 5560TIP3   OH240132   5.038   2.272   0.223
 5560TIP3    H140133   4.953   2.274   0.179
 5560TIP3    H240134   5.054   2.362   0.250
 5561TIP3   OH240135   4.800   3.085   1.493
 5561TIP3    H140136   4.826   3.040   1.574
 5561TIP3    H240137   4.758   3.166   1.524
 5562TIP3   OH240138   5.086   2.510   0.363
 5562TIP3    H140139   5.172   2.491   0.400
 5562TIP3    H240140   5.095   2.596   0.323
 5563TIP3   OH240141   4.147   2.962   0.897
 5563TIP3    H140142   4.202   2.944   0.821
 5563TIP3    H240143   4.180   2.902   0.964
 5564TIP3   OH240144   4.862   3.166   0.293
 5564TIP3    H140145   4.831   3.254   0.315
 5564TIP3    H240146   4.786   3.110   0.307
 5565TIP3   OH240147   3.817   2.810   1.503
 5565TIP3    H140148   3.850   2.743   1.564
 5565TIP3    H240149   3.764   2.761   1.440
 5566TIP3   OH240150   4.572   2.777   1.673
 5566TIP3    H140151   4.515   2.726   1.615
 5566TIP3    H240152   4.652   2.725   1.680
 5567TIP3   OH240153   4.986   3.360   1.497
 5567TIP3    H140154   4.890   3.358   1.488
 5567TIP3    H240155   5.001   3.357   1.591
 5568TIP3   OH240156   5.539   2.531   0.311
 5568TIP3    H140157   5.478   2.513   0.240
 5568TIP3    H240158   5.568   2.621   0.295
 5569TIP3   OH240159   5.594   3.125   1.590
 5569TIP3    H140160   5.504   3.122   1.556
 5569TIP3    H240161   5.648   3.094   1.517
 5570TIP3   OH240162   5.373   3.392   0.353
 5570TIP3    H140163   5.343   3.308   0.387
 5570TIP3    H240164   5.424   3.370   0.275
 5571TIP3   OH240165   5.123   2.893   1.028
 5571TIP3    H140166   5.029   2.877   1.023
 5571TIP3    H240167   5.164   2.813   0.994
 5572TIP3   OH240168   4.396   3.312   0.688
 5572TIP3    H140169   4.416   3.398   0.650
 5572TIP3    H240170   4.303   3.316   0.709
 5573TIP3   OH240171   3.975   2.786   0.142
 5573TIP3    H140172   4.015   2.844   0.207
 5573TIP3    H240173   3.882   2.788   0.162
 5574TIP3   OH240174   4.489   3.073   0.590
 5574TIP3    H140175   4.464   3.159   0.623
 5574TIP3    H240176   4.435   3.011   0.638
 5575TIP3   OH240177   4.602   3.502   1.293
 5575TIP3    H140178   4.658   3.576   1.269
 5575TIP3    H240179   4.652   3.454   1.359
 5576TIP3   OH240180   4.400   3.577   0.582
 5576TIP3    H140181   4.308   3.592   0.605
 5576TIP3    H240182   4.447   3.651   0.620
 5577TIP3   OH240183   4.909   3.090   1.244
 5577TIP3    H140184   4.870   3.087   1.331
 5577TIP3    H240185   4.974   3.019   1.244
 5578TIP3   OH240186   5.126   3.184   0.177
 5578TIP3    H140187   5.172   3.163   0.259
 5578TIP3    H240188   5.033   3.186   0.202
 5579TIP3   OH240189   5.217   3.506   1.462
 5579TIP3    H140190   5.131   3.465   1.467
 5579TIP3    H240191   5.201   3.589   1.417
 5580TIP3   OH240192   5.590   3.611   0.168
 5580TIP3    H140193   5.657   3.667   0.129
 5580TIP3    H240194   5.523   3.672   0.200
 5581TIP3   OH240195   4.044   2.226   1.486
 5581TIP3    H140196   4.040   2.268   1.571
 5581TIP3    H240197   4.034   2.133   1.505
 5582TIP3   OH240198   5.256   3.092   0.406
 5582TIP3    H140199   5.218   3.013   0.443
 5582TIP3    H240200   5.349   3.071   0.393
 5583TIP3   OH240201   3.999   3.456   1.261
 5583TIP3    H140202   4.028   3.381   1.313
 5583TIP3    H240203   4.009   3.531   1.319
 5584TIP3   OH240204   4.419   3.261   0.281
 5584TIP3    H140205   4.487   3.208   0.324
 5584TIP3    H240206   4.447   3.352   0.295
 5585TIP3   OH240207   4.071   2.976   0.318
 5585TIP3    H140208   4.002   3.022   0.365
 5585TIP3    H240209   4.121   3.046   0.274
 5586TIP3   OH240210   4.895   2.234   1.304
 5586TIP3    H140211   4.962   2.267   1.364
 5586TIP3    H240212   4.872   2.148   1.340
 5587TIP3   OH240213   4.998   2.168   0.478
 5587TIP3    H140214   5.010   2.209   0.392
 5587TIP3    H240215   5.032   2.233   0.540
 5588TIP3   OH240216   4.755   3.406   0.373
 5588TIP3    H140217   4.667   3.442   0.378
 5588TIP3    H240218   4.795   3.448   0.297
 5589TIP3   OH240219   4.666   2.413   0.507
 5589TIP3    H140220   4.739   2.475   0.514
 5589TIP3    H240221   4.669   2.363   0.588
 5590TIP3   OH240222   4.759   2.483   1.429
 5590TIP3    H140223   4.756   2.516   1.519
 5590TIP3    H240224   4.806   2.400   1.436
 5591TIP3   OH240225   4.757   2.054   0.552
 5591TIP3    H140226   4.729   2.124   0.612
 5591TIP3    H240227   4.844   2.081   0.523
 5592TIP3   OH240228   4.502   3.518   0.334
 5592TIP3    H140229   4.509   3.600   0.286
 5592TIP3    H240230   4.465   3.543   0.419
 5593TIP3   OH240231   4.321   2.201   0.344
 5593TIP3    H140232   4.322   2.290   0.379
 5593TIP3    H240233   4.411   2.170   0.355
 5594TIP3   OH240234   5.320   2.259   1.491
 5594TIP3    H140235   5.227   2.284   1.488
 5594TIP3    H240236   5.335   2.212   1.409
 5595TIP3   OH240237   5.226   2.650   0.935
 5595TIP3    H140238   5.151   2.600   0.965
 5595TIP3    H240239   5.302   2.607   0.976
 5596TIP3   OH240240   4.165   3.204   0.181
 5596TIP3    H140241   4.231   3.248   0.235
 5596TIP3    H240242   4.216   3.159   0.114
 5597TIP3   OH240243   3.948   2.505   0.086
 5597TIP3    H140244   3.990   2.588   0.109
 5597TIP3    H240245   3.864   2.530   0.047
 5598TIP3   OH240246   5.308   3.613   1.074
 5598TIP3    H140247   5.323   3.687   1.015
 5598TIP3    H240248   5.394   3.574   1.087
 5599TIP3   OH240249   4.099   1.979   0.957
 5599TIP3    H140250   4.088   1.985   0.862
 5599TIP3    H240251   4.062   1.893   0.980
 5600TIP3   OH240252   3.935   3.390   0.559
 5600TIP3    H140253   3.889   3.421   0.637
 5600TIP3    H240254   3.918   3.458   0.494
 5601TIP3   OH240255   3.912   3.654   1.734
 5601TIP3    H140256   3.977   3.629   1.800
 5601TIP3    H240257   3.876   3.570   1.703
 5602TIP3   OH240258   4.342   3.482   1.878
 5602TIP3    H140259   4.437   3.488   1.875
 5602TIP3    H240260   4.316   3.451   1.791
 5603TIP3   OH240261   4.847   3.501   0.137
 5603TIP3    H140262   4.814   3.467   0.053
 5603TIP3    H240263   4.937   3.528   0.118
 5604TIP3   OH240264   5.015   3.342   1.778
 5604TIP3    H140265   4.962   3.271   1.813
 5604TIP3    H240266   5.105   3.319   1.803
 5605TIP3   OH240267   5.239   3.417   0.047
 5605TIP3    H140268   5.206   3.343   0.098
 5605TIP3    H240269   5.334   3.408   0.051
 5606TIP3   OH240270   3.894   2.994   1.733
 5606TIP3    H140271   3.901   2.902   1.708
 5606TIP3    H240272   3.832   3.032   1.670
 5607TIP3   OH240273   4.328   3.039   0.038
 5607TIP3    H140274   4.367   3.003   0.118
 5607TIP3    H240275   4.366   2.986  -0.033
 5608TIP3   OH240276   4.515   3.040   1.745
 5608TIP3    H140277   4.510   3.088   1.662
 5608TIP3    H240278   4.542   2.952   1.720
 5609TIP3   OH240279   5.111   3.051   1.517
 5609TIP3    H140280   5.202   3.076   1.499
 5609TIP3    H240281   5.061   3.132   1.501
 5610TIP3   OH240282   3.999   2.722   1.723
 5610TIP3    H140283   4.060   2.648   1.726
 5610TIP3    H240284   3.991   2.750   1.814
 5611TIP3   OH240285   4.430   2.877   0.247
 5611TIP3    H140286   4.373   2.849   0.319
 5611TIP3    H240287   4.467   2.795   0.213
 5612TIP3   OH240288   4.406   2.632   1.494
 5612TIP3    H140289   4.331   2.691   1.503
 5612TIP3    H240290   4.460   2.673   1.426
 5613TIP3   OH240291   4.594   2.703   0.017
 5613TIP3    H140292   4.628   2.676  -0.068
 5613TIP3    H240293   4.671   2.703   0.074
 5614TIP3   OH240294   4.935   2.910   1.838
 5614TIP3    H140295   5.020   2.908   1.882
 5614TIP3    H240296   4.908   2.818   1.835
 5615TIP3   OH240297   5.465   2.982   0.016
 5615TIP3    H140298   5.439   3.025  -0.065
 5615TIP3    H240299   5.508   3.051   0.067
 5616TIP3   OH240300   4.432   2.395   1.637
 5616TIP3    H140301   4.442   2.325   1.572
 5616TIP3    H240302   4.432   2.476   1.585
 5617TIP3   OH240303   4.447   2.219   1.410
 5617TIP3    H140304   4.499   2.271   1.348
 5617TIP3    H240305   4.360   2.213   1.370
 5618TIP3   OH240306   4.567   2.771   1.323
 5618TIP3    H140307   4.660   2.786   1.335
 5618TIP3    H240308   4.534   2.853   1.286
 5619TIP3   OH240309   5.040   2.593   1.788
 5619TIP3    H140310   5.086   2.530   1.843
 5619TIP3    H240311   5.101   2.666   1.778
 5620TIP3   OH240312   5.190   2.806   1.638
 5620TIP3    H140313   5.149   2.890   1.616
 5620TIP3    H240314   5.282   2.827   1.652
 5621TIP3   OH240315   4.188   2.520   1.719
 5621TIP3    H140316   4.160   2.496   1.807
 5621TIP3    H240317   4.273   2.476   1.708
 5622TIP3   OH240318   4.546   1.963   1.337
 5622TIP3    H140319   4.508   2.040   1.379
 5622TIP3    H240320   4.474   1.900   1.335
 5623TIP3   OH240321   4.645   2.367   1.828
 5623TIP3    H140322   4.621   2.336   1.916
 5623TIP3    H240323   4.561   2.373   1.782
 5624TIP3   OH240324   4.876   2.313   1.673
 5624TIP3    H140325   4.799   2.321   1.730
 5624TIP3    H240326   4.943   2.273   1.729
 5625TIP3   OH240327   5.066   2.195   1.830
 5625TIP3    H140328   5.058   2.100   1.842
 5625TIP3    H240329   5.157   2.215   1.852
 5626TIP3   OH240330   4.007   2.267   1.767
 5626TIP3    H140331   4.018   2.191   1.824
 5626TIP3    H240332   4.021   2.342   1.824
 5627TIP3   OH240333   4.538   3.730   0.162
 5627TIP3    H140334   4.625   3.759   0.190
 5627TIP3    H240335   4.534   3.752   0.069
 5628TIP3   OH240336   3.894   3.217   0.097
 5628TIP3    H140337   3.986   3.224   0.123
 5628TIP3    H240338   3.897   3.206   0.002
 5629TIP3   OH240339   3.775   3.713   0.662
 5629TIP3    H140340   3.722   3.674   0.592
 5629TIP3    H240341   3.798   3.640   0.719
 5630TIP3   OH240342   3.856   3.497   0.816
 5630TIP3    H140343   3.818   3.425   0.866
 5630TIP3    H240344   3.906   3.548   0.880
 5631TIP3   OH240345   5.601   3.614   1.113
 5631TIP3    H140346   5.590   3.604   1.208
 5631TIP3    H240347   5.692   3.643   1.103
 5632TIP3   OH240348   5.568   3.571   1.382
 5632TIP3    H140349   5.516   3.494   1.357
 5632TIP3    H240350   5.545   3.586   1.474
 5633TIP3   OH240351   5.387   3.217   1.934
 5633TIP3    H140352   5.419   3.130   1.910
 5633TIP3    H240353   5.337   3.204   2.015
 5634TIP3   OH240354   5.508   2.993   0.392
 5634TIP3    H140355   5.576   3.042   0.438
 5634TIP3    H240356   5.499   2.912   0.442
 5635TIP3   OH240357   5.569   2.781   0.559
 5635TIP3    H140358   5.501   2.761   0.623
 5635TIP3    H240359   5.615   2.857   0.595
 5636TIP3   OH240360   5.555   3.098   1.071
 5636TIP3    H140361   5.619   3.027   1.063
 5636TIP3    H240362   5.605   3.177   1.053
 5637TIP3   OH240363   5.400   3.370   1.306
 5637TIP3    H140364   5.326   3.409   1.353
 5637TIP3    H240365   5.364   3.347   1.220
 5638TIP3   OH240366   5.589   2.794   0.215
 5638TIP3    H140367   5.532   2.829   0.146
 5638TIP3    H240368   5.583   2.858   0.286
 5639TIP3   OH240369   5.379   2.505   0.082
 5639TIP3    H140370   5.457   2.522   0.030
 5639TIP3    H240371   5.353   2.416   0.059
 5640TIP3   OH240372   5.335   2.675   0.677
 5640TIP3    H140373   5.343   2.583   0.651
 5640TIP3    H240374   5.301   2.672   0.767
 5641TIP3   OH240375   3.851   2.890   1.097
 5641TIP3    H140376   3.855   2.883   1.002
 5641TIP3    H240377   3.928   2.843   1.129
 5642TIP3   OH240378   5.459   2.868   1.644
 5642TIP3    H140379   5.514   2.792   1.657
 5642TIP3    H240380   5.518   2.943   1.656
 5643TIP3   OH240381   5.619   2.633   1.657
 5643TIP3    H140382   5.529   2.603   1.660
 5643TIP3    H240383   5.671   2.554   1.672
 5644TIP3   OH240384   5.302   2.249   0.020
 5644TIP3    H140385   5.384   2.212   0.054
 5644TIP3    H240386   5.236   2.223   0.084
 5645TIP3   OH240387   5.327   2.435   0.488
 5645TIP3    H140388   5.348   2.343   0.499
 5645TIP3    H240389   5.403   2.472   0.443
 5646TIP3   OH240390   5.418   2.491   1.047
 5646TIP3    H140391   5.511   2.509   1.037
 5646TIP3    H240392   5.404   2.492   1.142
 5647TIP3   OH240393   5.402   2.543   1.317
 5647TIP3    H140394   5.327   2.564   1.372
 5647TIP3    H240395   5.450   2.625   1.309
 5648TIP3   OH240396   3.782   2.361   1.638
 5648TIP3    H140397   3.866   2.341   1.679
 5648TIP3    H240398   3.727   2.286   1.659
 5649TIP3   OH240399   5.373   2.168   0.527
 5649TIP3    H140400   5.410   2.127   0.605
 5649TIP3    H240401   5.319   2.100   0.487
 5650TIP3   OH240402   3.917   2.163   1.062
 5650TIP3    H140403   3.983   2.099   1.037
 5650TIP3    H240404   3.935   2.239   1.006
 5651TIP3   OH240405   3.782   2.494   1.035
 5651TIP3    H140406   3.841   2.447   0.976
 5651TIP3    H240407   3.824   2.579   1.048
 5652TIP3   OH240408   5.515   2.184   1.669
 5652TIP3    H140409   5.450   2.204   1.602
 5652TIP3    H240410   5.538   2.093   1.654
 5653TIP3   OH240411   5.545   2.171   0.119
 5653TIP3    H140412   5.596   2.103   0.076
 5653TIP3    H240413   5.608   2.220   0.170
 5654TIP3   OH240414   3.770   2.098   0.417
 5654TIP3    H140415   3.771   2.126   0.509
 5654TIP3    H240416   3.791   2.177   0.368
 5655TIP3   OH240417   5.295   3.619   0.695
 5655TIP3    H140418   5.360   3.622   0.624
 5655TIP3    H240419   5.324   3.686   0.757
 5656TIP3   OH240420   3.818   1.994   1.258
 5656TIP3    H140421   3.752   2.031   1.316
 5656TIP3    H240422   3.842   2.067   1.200
 5657TIP3   OH240423   4.028   3.336   1.729
 5657TIP3    H140424   3.936   3.352   1.712
 5657TIP3    H240425   4.032   3.312   1.822
 5658TIP3   OH240426   4.336   3.476   1.360
 5658TIP3    H140427   4.304   3.562   1.333
 5658TIP3    H240428   4.431   3.481   1.348
 5659TIP3   OH240429   4.753   3.604   1.664
 5659TIP3    H140430   4.760   3.585   1.757
 5659TIP3    H240431   4.825   3.663   1.646
 5660TIP3   OH240432   4.970   3.787   1.627
 5660TIP3    H140433   5.057   3.747   1.620
 5660TIP3    H240434   4.984   3.863   1.684
 5661TIP3   OH240435   5.487   1.944   1.460
 5661TIP3    H140436   5.393   1.942   1.472
 5661TIP3    H240437   5.512   1.852   1.451
 5662TIP3   OH240438   4.037   3.756   1.356
 5662TIP3    H140439   3.959   3.795   1.316
 5662TIP3    H240440   4.044   3.799   1.442
 5663TIP3   OH240441   4.299   3.736   1.277
 5663TIP3    H140442   4.208   3.747   1.307
 5663TIP3    H240443   4.304   3.788   1.197
 5664TIP3   OH240444   4.744   3.716   1.186
 5664TIP3    H140445   4.685   3.755   1.122
 5664TIP3    H240446   4.759   3.785   1.250
 5665TIP3   OH240447   4.997   3.614   1.215
 5665TIP3    H140448   4.908   3.648   1.209
 5665TIP3    H240449   5.044   3.679   1.268
 5666TIP3   OH240450   5.233   3.737   1.311
 5666TIP3    H140451   5.245   3.829   1.287
 5666TIP3    H240452   5.264   3.688   1.234
 5667TIP3   OH240453   4.007   3.612   1.024
 5667TIP3    H140454   3.993   3.570   1.109
 5667TIP3    H240455   4.089   3.576   0.992
 5668TIP3   OH240456   4.228   3.492   0.920
 5668TIP3    H140457   4.212   3.401   0.942
 5668TIP3    H240458   4.312   3.513   0.960
 5669TIP3   OH240459   4.480   3.516   1.040
 5669TIP3    H140460   4.491   3.425   1.012
 5669TIP3    H240461   4.511   3.517   1.131
 5670TIP3   OH240462   4.751   2.072   0.911
 5670TIP3    H140463   4.706   1.992   0.937
 5670TIP3    H240464   4.843   2.048   0.905
 5671TIP3   OH240465   5.312   1.919   0.888
 5671TIP3    H140466   5.381   1.974   0.850
 5671TIP3    H240467   5.240   1.979   0.906
 5672TIP3   OH240468   5.505   2.050   0.739
 5672TIP3    H140469   5.561   1.975   0.720
 5672TIP3    H240470   5.565   2.123   0.753
 5673TIP3   OH240471   4.047   1.941   0.686
 5673TIP3    H140472   3.954   1.922   0.673
 5673TIP3    H240473   4.091   1.857   0.670
 5674TIP3   OH240474   3.945   1.940   0.270
 5674TIP3    H140475   3.999   2.007   0.229
 5674TIP3    H240476   3.885   1.990   0.327
 5675TIP3   OH240477   4.533   1.899   0.687
 5675TIP3    H140478   4.606   1.948   0.650
 5675TIP3    H240479   4.550   1.896   0.781
 5676TIP3   OH240480   5.023   2.008   0.864
 5676TIP3    H140481   5.050   2.018   0.773
 5676TIP3    H240482   5.008   1.914   0.875
 5677TIP3   OH240483   5.204   1.982   0.411
 5677TIP3    H140484   5.129   2.040   0.422
 5677TIP3    H240485   5.169   1.894   0.426
 5678TIP3   OH240486   3.890   3.576   0.361
 5678TIP3    H140487   3.825   3.558   0.293
 5678TIP3    H240488   3.919   3.665   0.345
 5679TIP3   OH240489   4.119   2.115   0.147
 5679TIP3    H140490   4.172   2.053   0.096
 5679TIP3    H240491   4.180   2.152   0.211
 5680TIP3   OH240492   4.603   2.192   0.350
 5680TIP3    H140493   4.651   2.123   0.396
 5680TIP3    H240494   4.630   2.273   0.394
 5681TIP3   OH240495   4.808   3.764   0.210
 5681TIP3    H140496   4.882   3.811   0.173
 5681TIP3    H240497   4.820   3.673   0.181
 5682TIP3   OH240498   5.467   3.621   0.478
 5682TIP3    H140499   5.437   3.539   0.438
 5682TIP3    H240500   5.460   3.686   0.408
 5683TIP3   OH240501   4.046   1.958   1.588
 5683TIP3    H140502   3.981   1.899   1.627
 5683TIP3    H240503   4.118   1.958   1.651
 5684TIP3   OH240504   4.214   1.887   1.806
 5684TIP3    H140505   4.271   1.810   1.805
 5684TIP3    H240506   4.146   1.867   1.870
 5685TIP3   OH240507   4.041   3.642   0.051
 5685TIP3    H140508   4.036   3.715   0.113
 5685TIP3    H240509   4.121   3.595   0.076
 5686TIP3   OH240510   5.048   1.914   1.863
 5686TIP3    H140511   4.993   1.849   1.906
 5686TIP3    H240512   5.133   1.907   1.907
 5687TIP3   OH240513   5.435   3.541   1.631
 5687TIP3    H140514   5.355   3.517   1.585
 5687TIP3    H240515   5.408   3.607   1.694
 5688TIP3   OH240516   6.862   2.896   0.678
 5688TIP3    H140517   6.853   2.991   0.669
 5688TIP3    H240518   6.788   2.860   0.629
 5689TIP3   OH240519   6.679   2.813   1.055
 5689TIP3    H140520   6.723   2.777   1.133
 5689TIP3    H240521   6.641   2.736   1.012
 5690TIP3   OH240522   5.937   2.719   1.173
 5690TIP3    H140523   5.956   2.656   1.243
 5690TIP3    H240524   6.023   2.746   1.141
 5691TIP3   OH240525   7.138   3.127   0.866
 5691TIP3    H140526   7.098   3.052   0.909
 5691TIP3    H240527   7.151   3.191   0.936
 5692TIP3   OH240528   6.064   3.252   1.007
 5692TIP3    H140529   6.046   3.167   0.967
 5692TIP3    H240530   6.152   3.245   1.042
 5693TIP3   OH240531   5.735   2.558   0.519
 5693TIP3    H140532   5.696   2.642   0.546
 5693TIP3    H240533   5.674   2.524   0.453
 5694TIP3   OH240534   5.820   2.846   0.832
 5694TIP3    H140535   5.832   2.757   0.801
 5694TIP3    H240536   5.800   2.897   0.754
 5695TIP3   OH240537   6.835   3.604   0.883
 5695TIP3    H140538   6.864   3.543   0.815
 5695TIP3    H240539   6.796   3.548   0.951
 5696TIP3   OH240540   6.564   3.070   1.077
 5696TIP3    H140541   6.593   2.985   1.046
 5696TIP3    H240542   6.634   3.100   1.135
 5697TIP3   OH240543   7.415   2.225   1.142
 5697TIP3    H140544   7.425   2.270   1.226
 5697TIP3    H240545   7.450   2.286   1.078
 5698TIP3   OH240546   6.901   2.495   1.094
 5698TIP3    H140547   6.918   2.403   1.110
 5698TIP3    H240548   6.874   2.498   1.002
 5699TIP3   OH240549   6.175   2.303   0.851
 5699TIP3    H140550   6.211   2.382   0.811
 5699TIP3    H240551   6.213   2.231   0.801
 5700TIP3   OH240552   6.987   2.342   0.649
 5700TIP3    H140553   7.028   2.303   0.726
 5700TIP3    H240554   7.058   2.388   0.605
 5701TIP3   OH240555   5.877   2.535   0.844
 5701TIP3    H140556   5.928   2.493   0.913
 5701TIP3    H240557   5.924   2.516   0.763
 5702TIP3   OH240558   6.346   2.687   0.853
 5702TIP3    H140559   6.433   2.658   0.881
 5702TIP3    H240560   6.318   2.620   0.790
 5703TIP3   OH240561   7.428   2.356   1.380
 5703TIP3    H140562   7.368   2.431   1.372
 5703TIP3    H240563   7.470   2.369   1.465
 5704TIP3   OH240564   6.088   2.199   1.237
 5704TIP3    H140565   6.060   2.266   1.174
 5704TIP3    H240566   6.019   2.199   1.304
 5705TIP3   OH240567   6.841   3.150   0.568
 5705TIP3    H140568   6.813   3.148   0.477
 5705TIP3    H240569   6.782   3.214   0.610
 5706TIP3   OH240570   6.339   2.982   1.211
 5706TIP3    H140571   6.286   3.056   1.242
 5706TIP3    H240572   6.411   3.023   1.163
 5707TIP3   OH240573   7.106   2.267   0.879
 5707TIP3    H140574   7.046   2.236   0.946
 5707TIP3    H240575   7.171   2.318   0.927
 5708TIP3   OH240576   6.015   2.388   1.043
 5708TIP3    H140577   6.075   2.442   1.093
 5708TIP3    H240578   6.069   2.347   0.975
 5709TIP3   OH240579   6.195   3.198   1.312
 5709TIP3    H140580   6.200   3.294   1.316
 5709TIP3    H240581   6.108   3.177   1.346
 5710TIP3   OH240582   5.869   3.187   0.355
 5710TIP3    H140583   5.794   3.208   0.299
 5710TIP3    H240584   5.830   3.149   0.434
 5711TIP3   OH240585   7.155   3.321   1.068
 5711TIP3    H140586   7.061   3.320   1.088
 5711TIP3    H240587   7.176   3.413   1.054
 5712TIP3   OH240588   7.170   2.088   1.190
 5712TIP3    H140589   7.097   2.143   1.164
 5712TIP3    H240590   7.248   2.139   1.166
 5713TIP3   OH240591   6.431   1.890   0.983
 5713TIP3    H140592   6.406   1.798   0.995
 5713TIP3    H240593   6.355   1.940   1.012
 5714TIP3   OH240594   6.954   3.466   0.665
 5714TIP3    H140595   7.001   3.383   0.655
 5714TIP3    H240596   7.023   3.530   0.682
 5715TIP3   OH240597   7.102   3.233   0.614
 5715TIP3    H140598   7.019   3.191   0.592
 5715TIP3    H240599   7.127   3.194   0.698
 5716TIP3   OH240600   7.260   3.097   1.445
 5716TIP3    H140601   7.241   3.041   1.370
 5716TIP3    H240602   7.259   3.186   1.410
 5717TIP3   OH240603   6.704   2.824   0.456
 5717TIP3    H140604   6.636   2.888   0.435
 5717TIP3    H240605   6.764   2.829   0.381
 5718TIP3   OH240606   6.717   2.667   0.139
 5718TIP3    H140607   6.782   2.702   0.199
 5718TIP3    H240608   6.764   2.603   0.085
 5719TIP3   OH240609   7.409   2.749   1.217
 5719TIP3    H140610   7.338   2.812   1.219
 5719TIP3    H240611   7.475   2.788   1.159
 5720TIP3   OH240612   7.072   2.845   0.514
 5720TIP3    H140613   7.004   2.866   0.578
 5720TIP3    H240614   7.136   2.793   0.564
 5721TIP3   OH240615   7.012   2.640   1.464
 5721TIP3    H140616   7.010   2.703   1.536
 5721TIP3    H240617   6.947   2.672   1.402
 5722TIP3   OH240618   6.219   2.889   0.711
 5722TIP3    H140619   6.194   2.845   0.630
 5722TIP3    H240620   6.266   2.823   0.761
 5723TIP3   OH240621   6.364   3.269   0.982
 5723TIP3    H140622   6.353   3.258   0.887
 5723TIP3    H240623   6.432   3.206   1.005
 5724TIP3   OH240624   6.207   2.768   1.091
 5724TIP3    H140625   6.251   2.756   1.007
 5724TIP3    H240626   6.248   2.846   1.129
 5725TIP3   OH240627   6.898   3.319   1.150
 5725TIP3    H140628   6.875   3.395   1.203
 5725TIP3    H240629   6.849   3.246   1.190
 5726TIP3   OH240630   6.370   3.210   1.533
 5726TIP3    H140631   6.304   3.259   1.581
 5726TIP3    H240632   6.326   3.183   1.452
 5727TIP3   OH240633   6.931   2.777   0.289
 5727TIP3    H140634   6.979   2.804   0.368
 5727TIP3    H240635   6.975   2.824   0.218
 5728TIP3   OH240636   6.023   2.789   1.487
 5728TIP3    H140637   6.026   2.864   1.547
 5728TIP3    H240638   5.930   2.782   1.464
 5729TIP3   OH240639   6.691   3.370   0.630
 5729TIP3    H140640   6.766   3.427   0.644
 5729TIP3    H240641   6.654   3.399   0.546
 5730TIP3   OH240642   6.164   3.354   1.630
 5730TIP3    H140643   6.153   3.418   1.560
 5730TIP3    H240644   6.083   3.360   1.681
 5731TIP3   OH240645   7.290   1.895   0.275
 5731TIP3    H140646   7.208   1.923   0.316
 5731TIP3    H240647   7.324   1.974   0.233
 5732TIP3   OH240648   6.140   2.773   0.458
 5732TIP3    H140649   6.082   2.835   0.413
 5732TIP3    H240650   6.085   2.696   0.473
 5733TIP3   OH240651   7.393   3.381   0.127
 5733TIP3    H140652   7.428   3.470   0.127
 5733TIP3    H240653   7.468   3.325   0.110
 5734TIP3   OH240654   5.730   3.027   1.366
 5734TIP3    H140655   5.711   3.018   1.272
 5734TIP3    H240656   5.741   2.937   1.397
 5735TIP3   OH240657   5.761   3.299   1.044
 5735TIP3    H140658   5.846   3.268   1.012
 5735TIP3    H240659   5.780   3.336   1.130
 5736TIP3   OH240660   7.522   3.409   1.627
 5736TIP3    H140661   7.532   3.314   1.623
 5736TIP3    H240662   7.435   3.423   1.662
 5737TIP3   OH240663   6.611   3.335   1.508
 5737TIP3    H140664   6.608   3.418   1.555
 5737TIP3    H240665   6.525   3.296   1.523
 5738TIP3   OH240666   6.679   3.712   0.458
 5738TIP3    H140667   6.665   3.738   0.367
 5738TIP3    H240668   6.653   3.788   0.510
 5739TIP3   OH240669   6.022   3.571   0.689
 5739TIP3    H140670   6.040   3.550   0.781
 5739TIP3    H240671   5.957   3.506   0.663
 5740TIP3   OH240672   6.973   3.642   0.152
 5740TIP3    H140673   7.039   3.576   0.131
 5740TIP3    H240674   6.964   3.637   0.247
 5741TIP3   OH240675   6.931   3.619   0.428
 5741TIP3    H140676   6.840   3.643   0.441
 5741TIP3    H240677   6.951   3.560   0.500
 5742TIP3   OH240678   7.216   2.529   1.668
 5742TIP3    H140679   7.132   2.528   1.622
 5742TIP3    H240680   7.215   2.451   1.722
 5743TIP3   OH240681   5.947   3.176   1.437
 5743TIP3    H140682   5.975   3.133   1.517
 5743TIP3    H240683   5.872   3.125   1.407
 5744TIP3   OH240684   6.195   2.016   1.057
 5744TIP3    H140685   6.115   2.010   1.006
 5744TIP3    H240686   6.180   2.088   1.119
 5745TIP3   OH240687   6.703   1.985   1.392
 5745TIP3    H140688   6.751   1.938   1.460
 5745TIP3    H240689   6.611   1.968   1.410
 5746TIP3   OH240690   6.978   2.365   1.502
 5746TIP3    H140691   6.926   2.354   1.582
 5746TIP3    H240692   6.976   2.459   1.484
 5747TIP3   OH240693   7.064   2.916   0.094
 5747TIP3    H140694   7.118   2.937   0.017
 5747TIP3    H240695   7.105   2.965   0.165
 5748TIP3   OH240696   6.678   2.225   0.078
 5748TIP3    H140697   6.612   2.234   0.146
 5748TIP3    H240698   6.713   2.136   0.089
 5749TIP3   OH240699   6.208   2.517   1.193
 5749TIP3    H140700   6.146   2.522   1.266
 5749TIP3    H240701   6.215   2.607   1.162
 5750TIP3   OH240702   6.253   2.501   0.666
 5750TIP3    H140703   6.162   2.501   0.637
 5750TIP3    H240704   6.289   2.420   0.632
 5751TIP3   OH240705   6.763   2.575   0.557
 5751TIP3    H140706   6.734   2.659   0.523
 5751TIP3    H240707   6.826   2.543   0.492
 5752TIP3   OH240708   6.691   2.586   1.693
 5752TIP3    H140709   6.654   2.501   1.716
 5752TIP3    H240710   6.728   2.619   1.775
 5753TIP3   OH240711   6.854   2.529   0.817
 5753TIP3    H140712   6.816   2.576   0.742
 5753TIP3    H240713   6.885   2.447   0.779
 5754TIP3   OH240714   5.994   2.514   1.365
 5754TIP3    H140715   5.985   2.561   1.448
 5754TIP3    H240716   5.954   2.429   1.382
 5755TIP3   OH240717   6.361   2.301   0.088
 5755TIP3    H140718   6.348   2.230   0.152
 5755TIP3    H240719   6.364   2.380   0.142
 5756TIP3   OH240720   5.677   2.257   0.766
 5756TIP3    H140721   5.717   2.243   0.852
 5756TIP3    H240722   5.720   2.335   0.732
 5757TIP3   OH240723   5.729   2.328   0.256
 5757TIP3    H140724   5.801   2.367   0.208
 5757TIP3    H240725   5.673   2.402   0.280
 5758TIP3   OH240726   6.803   2.680   1.269
 5758TIP3    H140727   6.845   2.619   1.209
 5758TIP3    H240728   6.746   2.626   1.323
 5759TIP3   OH240729   6.543   2.312   0.826
 5759TIP3    H140730   6.472   2.281   0.770
 5759TIP3    H240731   6.583   2.232   0.860
 5760TIP3   OH240732   5.987   2.472   0.593
 5760TIP3    H140733   5.902   2.497   0.558
 5760TIP3    H240734   5.991   2.377   0.581
 5761TIP3   OH240735   6.332   2.457   0.317
 5761TIP3    H140736   6.410   2.445   0.371
 5761TIP3    H240737   6.290   2.536   0.351
 5762TIP3   OH240738   6.932   2.207   1.088
 5762TIP3    H140739   6.875   2.212   1.164
 5762TIP3    H240740   6.898   2.132   1.038
 5763TIP3   OH240741   6.163   2.647   0.110
 5763TIP3    H140742   6.133   2.575   0.055
 5763TIP3    H240743   6.259   2.640   0.108
 5764TIP3   OH240744   7.209   3.715   1.814
 5764TIP3    H140745   7.284   3.774   1.819
 5764TIP3    H240746   7.230   3.644   1.876
 5765TIP3   OH240747   5.979   3.011   1.675
 5765TIP3    H140748   6.057   3.004   1.730
 5765TIP3    H240749   5.920   2.942   1.706
 5766TIP3   OH240750   6.594   2.568   0.924
 5766TIP3    H140751   6.685   2.563   0.895
 5766TIP3    H240752   6.559   2.480   0.909
 5767TIP3   OH240753   6.018   2.197   0.577
 5767TIP3    H140754   5.983   2.114   0.609
 5767TIP3    H240755   6.113   2.187   0.583
 5768TIP3   OH240756   6.445   2.375   1.215
 5768TIP3    H140757   6.369   2.429   1.194
 5768TIP3    H240758   6.516   2.437   1.230
 5769TIP3   OH240759   6.523   3.022   0.378
 5769TIP3    H140760   6.454   2.972   0.334
 5769TIP3    H240761   6.482   3.050   0.461
 5770TIP3   OH240762   7.221   2.952   1.210
 5770TIP3    H140763   7.280   3.011   1.163
 5770TIP3    H240764   7.146   2.941   1.152
 5771TIP3   OH240765   6.934   2.286   0.199
 5771TIP3    H140766   6.854   2.294   0.146
 5771TIP3    H240767   6.943   2.372   0.240
 5772TIP3   OH240768   6.662   3.042   1.505
 5772TIP3    H140769   6.703   3.013   1.587
 5772TIP3    H240770   6.638   3.134   1.522
 5773TIP3   OH240771   6.968   2.510   0.362
 5773TIP3    H140772   7.051   2.499   0.407
 5773TIP3    H240773   6.969   2.601   0.332
 5774TIP3   OH240774   6.041   3.006   0.896
 5774TIP3    H140775   6.104   2.970   0.834
 5774TIP3    H240776   5.963   2.951   0.886
 5775TIP3   OH240777   6.746   3.169   0.303
 5775TIP3    H140778   6.707   3.255   0.320
 5775TIP3    H240779   6.674   3.107   0.316
 5776TIP3   OH240780   5.743   2.764   1.447
 5776TIP3    H140781   5.711   2.717   1.524
 5776TIP3    H240782   5.675   2.751   1.381
 5777TIP3   OH240783   6.486   2.779   1.653
 5777TIP3    H140784   6.487   2.798   1.559
 5777TIP3    H240785   6.577   2.756   1.673
 5778TIP3   OH240786   6.893   3.316   1.533
 5778TIP3    H140787   6.799   3.323   1.519
 5778TIP3    H240788   6.905   3.333   1.626
 5779TIP3   OH240789   7.402   2.541   0.309
 5779TIP3    H140790   7.338   2.523   0.240
 5779TIP3    H240791   7.433   2.629   0.290
 5780TIP3   OH240792   7.497   3.134   1.584
 5780TIP3    H140793   7.403   3.136   1.566
 5780TIP3    H240794   7.536   3.102   1.503
 5781TIP3   OH240795   7.389   3.352   0.404
 5781TIP3    H140796   7.320   3.302   0.447
 5781TIP3    H240797   7.368   3.348   0.311
 5782TIP3   OH240798   7.028   2.908   1.013
 5782TIP3    H140799   6.933   2.907   1.013
 5782TIP3    H240800   7.054   2.824   0.975
 5783TIP3   OH240801   6.264   3.321   0.698
 5783TIP3    H140802   6.283   3.404   0.655
 5783TIP3    H240803   6.169   3.311   0.688
 5784TIP3   OH240804   5.856   2.804   0.129
 5784TIP3    H140805   5.910   2.846   0.197
 5784TIP3    H240806   5.769   2.798   0.168
 5785TIP3   OH240807   6.377   3.089   0.597
 5785TIP3    H140808   6.349   3.172   0.635
 5785TIP3    H240809   6.326   3.023   0.644
 5786TIP3   OH240810   6.489   3.502   1.301
 5786TIP3    H140811   6.548   3.574   1.277
 5786TIP3    H240812   6.543   3.445   1.355
 5787TIP3   OH240813   6.273   3.581   0.570
 5787TIP3    H140814   6.183   3.590   0.601
 5787TIP3    H240815   6.319   3.655   0.610
 5788TIP3   OH240816   6.781   3.087   1.260
 5788TIP3    H140817   6.734   3.073   1.342
 5788TIP3    H240818   6.861   3.035   1.269
 5789TIP3   OH240819   7.008   3.220   0.184
 5789TIP3    H140820   7.060   3.164   0.241
 5789TIP3    H240821   6.917   3.205   0.212
 5790TIP3   OH240822   7.088   3.526   1.464
 5790TIP3    H140823   7.005   3.478   1.462
 5790TIP3    H240824   7.076   3.597   1.401
 5791TIP3   OH240825   7.489   3.638   0.156
 5791TIP3    H140826   7.501   3.665   0.065
 5791TIP3    H240827   7.422   3.697   0.190
 5792TIP3   OH240828   5.882   2.255   1.412
 5792TIP3    H140829   5.789   2.276   1.400
 5792TIP3    H240830   5.884   2.192   1.484
 5793TIP3   OH240831   7.163   3.032   0.327
 5793TIP3    H140832   7.120   2.985   0.398
 5793TIP3    H240833   7.256   3.029   0.349
 5794TIP3   OH240834   5.846   3.408   1.294
 5794TIP3    H140835   5.901   3.340   1.333
 5794TIP3    H240836   5.773   3.418   1.356
 5795TIP3   OH240837   6.315   3.258   0.248
 5795TIP3    H140838   6.371   3.206   0.305
 5795TIP3    H240839   6.331   3.349   0.273
 5796TIP3   OH240840   6.013   2.961   0.297
 5796TIP3    H140841   5.963   3.036   0.329
 5796TIP3    H240842   6.093   2.999   0.260
 5797TIP3   OH240843   6.798   2.239   1.327
 5797TIP3    H140844   6.865   2.261   1.392
 5797TIP3    H240845   6.763   2.155   1.357
 5798TIP3   OH240846   6.877   2.178   0.456
 5798TIP3    H140847   6.890   2.220   0.371
 5798TIP3    H240848   6.906   2.243   0.520
 5799TIP3   OH240849   6.615   3.406   0.360
 5799TIP3    H140850   6.528   3.444   0.361
 5799TIP3    H240851   6.660   3.450   0.288
 5800TIP3   OH240852   6.551   2.402   0.475
 5800TIP3    H140853   6.618   2.453   0.521
 5800TIP3    H240854   6.508   2.351   0.543
 5801TIP3   OH240855   6.669   2.497   1.416
 5801TIP3    H140856   6.681   2.511   1.510
 5801TIP3    H240857   6.692   2.405   1.403
 5802TIP3   OH240858   6.649   2.044   0.541
 5802TIP3    H140859   6.607   2.082   0.618
 5802TIP3    H240860   6.727   2.097   0.528
 5803TIP3   OH240861   6.365   3.523   0.316
 5803TIP3    H140862   6.376   3.609   0.275
 5803TIP3    H240863   6.329   3.543   0.402
 5804TIP3   OH240864   6.230   2.182   0.309
 5804TIP3    H140865   6.231   2.277   0.313
 5804TIP3    H240866   6.263   2.154   0.395
 5805TIP3   OH240867   7.221   2.228   1.528
 5805TIP3    H140868   7.134   2.267   1.518
 5805TIP3    H240869   7.272   2.265   1.456
 5806TIP3   OH240870   7.092   2.655   0.908
 5806TIP3    H140871   7.005   2.620   0.887
 5806TIP3    H240872   7.130   2.590   0.966
 5807TIP3   OH240873   6.059   3.246   0.080
 5807TIP3    H140874   6.079   3.287   0.164
 5807TIP3    H240875   6.121   3.174   0.072
 5808TIP3   OH240876   5.849   2.522   0.092
 5808TIP3    H140877   5.887   2.608   0.109
 5808TIP3    H240878   5.778   2.539   0.030
 5809TIP3   OH240879   7.245   3.585   1.064
 5809TIP3    H140880   7.227   3.654   1.001
 5809TIP3    H240881   7.336   3.600   1.091
 5810TIP3   OH240882   5.941   1.988   0.947
 5810TIP3    H140883   5.938   1.978   0.852
 5810TIP3    H240884   5.918   1.902   0.981
 5811TIP3   OH240885   5.847   3.370   0.614
 5811TIP3    H140886   5.814   3.281   0.629
 5811TIP3    H240887   5.843   3.381   0.519
 5812TIP3   OH240888   5.819   3.625   1.730
 5812TIP3    H140889   5.896   3.603   1.782
 5812TIP3    H240890   5.776   3.541   1.714
 5813TIP3   OH240891   6.727   3.507   0.134
 5813TIP3    H140892   6.692   3.462   0.057
 5813TIP3    H240893   6.818   3.527   0.112
 5814TIP3   OH240894   6.922   3.352   1.816
 5814TIP3    H140895   6.874   3.278   1.851
 5814TIP3    H240896   6.996   3.364   1.875
 5815TIP3   OH240897   7.124   3.434   0.061
 5815TIP3    H140898   7.082   3.361   0.105
 5815TIP3    H240899   7.218   3.418   0.070
 5816TIP3   OH240900   6.228   3.027   0.048
 5816TIP3    H140901   6.269   2.991   0.127
 5816TIP3    H240902   6.253   2.967  -0.022
 5817TIP3   OH240903   6.418   3.040   1.748
 5817TIP3    H140904   6.415   3.095   1.669
 5817TIP3    H240905   6.454   2.957   1.719
 5818TIP3   OH240906   6.992   3.056   1.505
 5818TIP3    H140907   7.085   3.073   1.500
 5818TIP3    H240908   6.951   3.142   1.512
 5819TIP3   OH240909   5.827   2.795   1.770
 5819TIP3    H140910   5.859   2.734   1.835
 5819TIP3    H240911   5.748   2.754   1.734
 5820TIP3   OH240912   6.325   2.872   0.260
 5820TIP3    H140913   6.269   2.831   0.325
 5820TIP3    H240914   6.356   2.800   0.205
 5821TIP3   OH240915   6.267   2.654   1.487
 5821TIP3    H140916   6.186   2.704   1.478
 5821TIP3    H240917   6.331   2.702   1.434
 5822TIP3   OH240918   6.443   2.674   0.090
 5822TIP3    H140919   6.449   2.632   0.004
 5822TIP3    H240920   6.533   2.676   0.123
 5823TIP3   OH240921   6.777   2.891   1.803
 5823TIP3    H140922   6.859   2.868   1.760
 5823TIP3    H240923   6.762   2.821   1.866
 5824TIP3   OH240924   7.378   2.943   8.482
 5824TIP3    H140925   7.348   2.922   8.394
 5824TIP3    H240926   7.379   3.038   8.485
 5825TIP3   OH240927   6.275   2.378   1.557
 5825TIP3    H140928   6.298   2.294   1.517
 5825TIP3    H240929   6.252   2.434   1.483
 5826TIP3   OH240930   6.330   2.182   1.366
 5826TIP3    H140931   6.383   2.240   1.311
 5826TIP3    H240932   6.244   2.181   1.324
 5827TIP3   OH240933   6.475   2.808   1.377
 5827TIP3    H140934   6.567   2.822   1.356
 5827TIP3    H240935   6.428   2.868   1.320
 5828TIP3   OH240936   7.014   2.833   1.664
 5828TIP3    H140937   7.000   2.912   1.612
 5828TIP3    H240938   7.107   2.836   1.687
 5829TIP3   OH240939   6.171   2.465   1.795
 5829TIP3    H140940   6.078   2.457   1.815
 5829TIP3    H240941   6.185   2.407   1.720
 5830TIP3   OH240942   6.428   1.927   1.379
 5830TIP3    H140943   6.398   2.018   1.381
 5830TIP3    H240944   6.353   1.878   1.346
 5831TIP3   OH240945   6.497   2.397   1.761
 5831TIP3    H140946   6.544   2.384   1.843
 5831TIP3    H240947   6.468   2.309   1.736
 5832TIP3   OH240948   6.840   2.311   1.730
 5832TIP3    H140949   6.774   2.311   1.799
 5832TIP3    H240950   6.904   2.246   1.758
 5833TIP3   OH240951   7.015   2.128   1.838
 5833TIP3    H140952   7.001   2.035   1.819
 5833TIP3    H240953   6.978   2.140   1.926
 5834TIP3   OH240954   5.946   2.268   1.774
 5834TIP3    H140955   5.949   2.186   1.724
 5834TIP3    H240956   5.958   2.240   1.865
 5835TIP3   OH240957   6.415   1.909   1.664
 5835TIP3    H140958   6.405   1.819   1.697
 5835TIP3    H240959   6.421   1.899   1.569
 5836TIP3   OH240960   6.497   2.117   1.826
 5836TIP3    H140961   6.475   2.041   1.772
 5836TIP3    H240962   6.417   2.135   1.875
 5837TIP3   OH240963   6.418   3.747   0.162
 5837TIP3    H140964   6.507   3.774   0.184
 5837TIP3    H240965   6.411   3.762   0.068
 5838TIP3   OH240966   5.765   3.226   0.069
 5838TIP3    H140967   5.858   3.230   0.088
 5838TIP3    H240968   5.760   3.209  -0.025
 5839TIP3   OH240969   5.667   3.723   0.642
 5839TIP3    H140970   5.611   3.679   0.579
 5839TIP3    H240971   5.681   3.658   0.711
 5840TIP3   OH240972   5.701   3.549   0.850
 5840TIP3    H140973   5.727   3.459   0.833
 5840TIP3    H240974   5.653   3.545   0.933
 5841TIP3   OH240975   7.511   3.634   1.136
 5841TIP3    H140976   7.512   3.583   1.217
 5841TIP3    H240977   7.514   3.725   1.165
 5842TIP3   OH240978   7.494   3.482   1.359
 5842TIP3    H140979   7.409   3.438   1.355
 5842TIP3    H240980   7.518   3.479   1.452
 5843TIP3   OH240981   7.265   3.178   1.839
 5843TIP3    H140982   7.216   3.217   1.911
 5843TIP3    H240983   7.271   3.248   1.774
 5844TIP3   OH240984   7.425   2.991   0.408
 5844TIP3    H140985   7.501   3.049   0.413
 5844TIP3    H240986   7.429   2.939   0.488
 5845TIP3   OH240987   7.453   2.826   0.624
 5845TIP3    H140988   7.371   2.784   0.650
 5845TIP3    H240989   7.510   2.818   0.700
 5846TIP3   OH240990   7.436   3.079   1.107
 5846TIP3    H140991   7.489   3.015   1.059
 5846TIP3    H240992   7.452   3.162   1.063
 5847TIP3   OH240993   7.255   3.348   1.332
 5847TIP3    H140994   7.196   3.404   1.381
 5847TIP3    H240995   7.213   3.338   1.246
 5848TIP3   OH240996   7.460   2.796   0.215
 5848TIP3    H140997   7.424   2.836   0.136
 5848TIP3    H240998   7.446   2.862   0.283
 5849TIP3   OH240999   7.254   2.505   0.079
 5849TIP3    H141000   7.327   2.527   0.021
 5849TIP3    H241001   7.233   2.414   0.056
 5850TIP3   OH241002   7.230   2.677   0.672
 5850TIP3    H141003   7.221   2.588   0.638
 5850TIP3    H241004   7.187   2.674   0.757
 5851TIP3   OH241005   5.736   2.886   1.091
 5851TIP3    H141006   5.753   2.878   0.997
 5851TIP3    H241007   5.807   2.837   1.133
 5852TIP3   OH241008   7.291   2.862   1.679
 5852TIP3    H141009   7.358   2.795   1.664
 5852TIP3    H241010   7.322   2.938   1.629
 5853TIP3   OH241011   7.459   2.642   1.648
 5853TIP3    H141012   7.370   2.609   1.658
 5853TIP3    H241013   7.515   2.567   1.668
 5854TIP3   OH241014   7.183   2.247   0.027
 5854TIP3    H141015   7.237   2.190   0.081
 5854TIP3    H241016   7.095   2.239   0.063
 5855TIP3   OH241017   7.209   2.445   0.500
 5855TIP3    H141018   7.223   2.350   0.506
 5855TIP3    H241019   7.281   2.476   0.446
 5856TIP3   OH241020   7.225   2.459   1.054
 5856TIP3    H141021   7.320   2.467   1.047
 5856TIP3    H241022   7.207   2.472   1.148
 5857TIP3   OH241023   7.242   2.549   1.325
 5857TIP3    H141024   7.167   2.578   1.377
 5857TIP3    H241025   7.287   2.630   1.302
 5858TIP3   OH241026   5.717   2.374   1.651
 5858TIP3    H141027   5.797   2.350   1.698
 5858TIP3    H241028   5.651   2.312   1.680
 5859TIP3   OH241029   7.242   2.171   0.513
 5859TIP3    H141030   7.263   2.138   0.601
 5859TIP3    H241031   7.182   2.105   0.477
 5860TIP3   OH241032   5.796   2.217   1.011
 5860TIP3    H141033   5.845   2.135   1.001
 5860TIP3    H241034   5.862   2.282   1.035
 5861TIP3   OH241035   5.685   2.559   1.043
 5861TIP3    H141036   5.740   2.553   0.965
 5861TIP3    H241037   5.744   2.589   1.112
 5862TIP3   OH241038   7.403   2.130   1.703
 5862TIP3    H141039   7.335   2.156   1.641
 5862TIP3    H241040   7.448   2.057   1.660
 5863TIP3   OH241041   7.397   2.108   0.141
 5863TIP3    H141042   7.421   2.091   0.050
 5863TIP3    H241043   7.457   2.177   0.170
 5864TIP3   OH241044   5.651   2.101   0.399
 5864TIP3    H141045   5.613   2.126   0.483
 5864TIP3    H241046   5.691   2.182   0.366
 5865TIP3   OH241047   7.148   3.650   0.684
 5865TIP3    H141048   7.225   3.649   0.627
 5865TIP3    H241049   7.176   3.699   0.761
 5866TIP3   OH241050   5.688   1.988   1.274
 5866TIP3    H141051   5.626   1.976   1.347
 5866TIP3    H241052   5.651   2.059   1.223
 5867TIP3   OH241053   5.911   3.301   1.744
 5867TIP3    H141054   5.920   3.210   1.715
 5867TIP3    H241055   5.824   3.328   1.715
 5868TIP3   OH241056   6.220   3.472   1.363
 5868TIP3    H141057   6.199   3.562   1.341
 5868TIP3    H241058   6.316   3.467   1.357
 5869TIP3   OH241059   6.621   3.586   1.623
 5869TIP3    H141060   6.626   3.555   1.713
 5869TIP3    H241061   6.703   3.633   1.609
 5870TIP3   OH241062   6.858   3.730   1.602
 5870TIP3    H141063   6.939   3.684   1.581
 5870TIP3    H241064   6.872   3.762   1.691
 5871TIP3   OH241065   7.327   1.914   1.464
 5871TIP3    H141066   7.243   1.912   1.418
 5871TIP3    H241067   7.364   1.828   1.450
 5872TIP3   OH241068   5.919   3.769   1.354
 5872TIP3    H141069   5.892   3.721   1.276
 5872TIP3    H241070   5.934   3.701   1.420
 5873TIP3   OH241071   6.187   3.731   1.269
 5873TIP3    H141072   6.098   3.761   1.286
 5873TIP3    H241073   6.188   3.710   1.176
 5874TIP3   OH241074   6.640   3.709   1.187
 5874TIP3    H141075   6.589   3.753   1.119
 5874TIP3    H241076   6.658   3.778   1.251
 5875TIP3   OH241077   6.859   3.563   1.267
 5875TIP3    H141078   6.782   3.612   1.238
 5875TIP3    H241079   6.931   3.626   1.260
 5876TIP3   OH241080   7.088   3.715   1.255
 5876TIP3    H141081   7.118   3.805   1.246
 5876TIP3    H241082   7.143   3.665   1.195
 5877TIP3   OH241083   5.898   3.619   1.121
 5877TIP3    H141084   5.879   3.542   1.175
 5877TIP3    H241085   5.957   3.587   1.053
 5878TIP3   OH241086   6.093   3.518   0.954
 5878TIP3    H141087   6.077   3.425   0.965
 5878TIP3    H241088   6.185   3.530   0.977
 5879TIP3   OH241089   6.356   3.536   1.056
 5879TIP3    H141090   6.366   3.448   1.020
 5879TIP3    H241091   6.395   3.532   1.143
 5880TIP3   OH241092   6.631   2.053   0.876
 5880TIP3    H141093   6.563   2.001   0.918
 5880TIP3    H241094   6.710   1.998   0.882
 5881TIP3   OH241095   7.201   1.909   0.901
 5881TIP3    H141096   7.253   1.978   0.862
 5881TIP3    H241097   7.116   1.949   0.918
 5882TIP3   OH241098   7.354   2.074   0.744
 5882TIP3    H141099   7.412   2.001   0.723
 5882TIP3    H241100   7.412   2.146   0.767
 5883TIP3   OH241101   5.922   1.942   0.672
 5883TIP3    H141102   5.830   1.918   0.659
 5883TIP3    H241103   5.970   1.860   0.659
 5884TIP3   OH241104   5.822   1.944   0.253
 5884TIP3    H141105   5.881   2.014   0.226
 5884TIP3    H241106   5.759   1.986   0.311
 5885TIP3   OH241107   6.379   1.898   0.694
 5885TIP3    H141108   6.369   1.989   0.665
 5885TIP3    H241109   6.404   1.905   0.786
 5886TIP3   OH241110   6.932   1.995   0.882
 5886TIP3    H141111   6.941   2.018   0.789
 5886TIP3    H241112   6.898   1.906   0.881
 5887TIP3   OH241113   7.066   1.979   0.417
 5887TIP3    H141114   6.992   2.040   0.427
 5887TIP3    H241115   7.028   1.893   0.438
 5888TIP3   OH241116   5.821   3.563   0.326
 5888TIP3    H141117   5.736   3.539   0.289
 5888TIP3    H241118   5.813   3.655   0.349
 5889TIP3   OH241119   6.040   2.085   0.128
 5889TIP3    H141120   6.063   1.993   0.119
 5889TIP3    H241121   6.097   2.117   0.198
 5890TIP3   OH241122   6.540   2.168   0.314
 5890TIP3    H141123   6.566   2.108   0.384
 5890TIP3    H241124   6.529   2.253   0.357
 5891TIP3   OH241125   6.691   3.773   0.190
 5891TIP3    H141126   6.776   3.809   0.166
 5891TIP3    H241127   6.697   3.680   0.167
 5892TIP3   OH241128   7.348   3.620   0.488
 5892TIP3    H141129   7.344   3.529   0.457
 5892TIP3    H241130   7.328   3.673   0.411
 5893TIP3   OH241131   5.916   2.019   1.620
 5893TIP3    H141132   5.849   1.958   1.653
 5893TIP3    H241133   5.997   1.990   1.663
 5894TIP3   OH241134   6.112   1.902   1.767
 5894TIP3    H141135   6.204   1.875   1.767
 5894TIP3    H241136   6.071   1.847   1.833
 5895TIP3   OH241137   6.000   3.665   0.127
 5895TIP3    H141138   5.942   3.643   0.199
 5895TIP3    H241139   6.034   3.581   0.096
 5896TIP3   OH241140   6.989   1.841   1.823
 5896TIP3    H141141   6.996   1.757   1.868
 5896TIP3    H241142   7.078   1.858   1.790
 5897TIP3   OH241143   7.267   3.426   1.714
 5897TIP3    H141144   7.194   3.478   1.679
 5897TIP3    H241145   7.270   3.448   1.807
 5898TIP3   OH241146   7.589   2.601   0.527
 5898TIP3    H141147   7.532   2.673   0.553
 5898TIP3    H241148   7.534   2.544   0.474
 5899TIP3   OH241149   7.650   2.750   0.808
 5899TIP3    H141150   7.636   2.655   0.808
 5899TIP3    H241151   7.743   2.760   0.784
 5900TIP3   OH241152   7.626   3.183   0.382
 5900TIP3    H141153   7.626   3.187   0.286
 5900TIP3    H241154   7.563   3.249   0.409
 5901TIP3   OH241155   7.576   3.020   1.346
 5901TIP3    H141156   7.513   3.034   1.275
 5901TIP3    H241157   7.563   2.929   1.372
 5902TIP3   OH241158   7.528   3.328   1.032
 5902TIP3    H141159   7.623   3.332   1.041
 5902TIP3    H241160   7.494   3.370   1.111
 5903TIP3   OH241161   7.528   2.286   0.743
 5903TIP3    H141162   7.614   2.324   0.759
 5903TIP3    H241163   7.525   2.275   0.648
 5904TIP3   OH241164   7.556   2.322   0.218
 5904TIP3    H141165   7.631   2.351   0.167
 5904TIP3    H241166   7.514   2.403   0.247
 5905TIP3   OH241167   7.583   2.757   1.436
 5905TIP3    H141168   7.548   2.721   1.517
 5905TIP3    H241169   7.524   2.724   1.368
 5906TIP3   OH241170   7.656   3.637   1.714
 5906TIP3    H141171   7.599   3.689   1.770
 5906TIP3    H241172   7.604   3.560   1.690
 5907TIP3   OH241173   7.634   3.019   1.794
 5907TIP3    H141174   7.564   2.977   1.845
 5907TIP3    H241175   7.588   3.063   1.723
 5908TIP3   OH241176   7.612   3.210   0.093
 5908TIP3    H141177   7.706   3.193   0.098
 5908TIP3    H241178   7.590   3.194   0.001
 5909TIP3   OH241179   7.504   3.740   0.675
 5909TIP3    H141180   7.452   3.699   0.606
 5909TIP3    H241181   7.506   3.676   0.745
 5910TIP3   OH241182   7.539   3.558   0.873
 5910TIP3    H141183   7.504   3.470   0.888
 5910TIP3    H241184   7.533   3.601   0.959
 5911TIP3   OH241185   7.600   2.866   1.053
 5911TIP3    H141186   7.613   2.813   0.974
 5911TIP3    H241187   7.684   2.910   1.066
 5912TIP3   OH241188   7.539   2.374   1.633
 5912TIP3    H141189   7.632   2.352   1.643
 5912TIP3    H241190   7.493   2.303   1.678
 5913TIP3   OH241191   7.496   2.508   1.073
 5913TIP3    H141192   7.591   2.519   1.065
 5913TIP3    H241193   7.469   2.578   1.133
 5914TIP3   OH241194   7.512   2.223   0.474
 5914TIP3    H141195   7.421   2.193   0.478
 5914TIP3    H241196   7.525   2.244   0.381
 5915TIP3   OH241197   7.500   1.983   1.250
 5915TIP3    H141198   7.445   1.975   1.327
 5915TIP3    H241199   7.466   2.060   1.204
 5916TIP3   OH241200   7.631   3.545   0.378
 5916TIP3    H141201   7.561   3.494   0.418
 5916TIP3    H241202   7.591   3.585   0.301
 5917TIP3   OH241203   1.205   4.728   0.675
 5917TIP3    H141204   1.195   4.822   0.690
 5917TIP3    H241205   1.141   4.707   0.607
 5918TIP3   OH241206   1.072   4.694   1.044
 5918TIP3    H141207   1.093   4.656   1.129
 5918TIP3    H241208   1.022   4.626   0.999
 5919TIP3   OH241209   0.312   4.621   1.220
 5919TIP3    H141210   0.316   4.534   1.259
 5919TIP3    H241211   0.354   4.678   1.285
 5920TIP3   OH241212   1.437   5.009   0.884
 5920TIP3    H141213   1.407   4.933   0.934
 5920TIP3    H241214   1.460   5.074   0.950
 5921TIP3   OH241215   0.398   5.109   1.023
 5921TIP3    H141216   0.392   5.020   0.991
 5921TIP3    H241217   0.451   5.102   1.103
 5922TIP3   OH241218   0.119   4.491   0.529
 5922TIP3    H141219   0.137   4.567   0.584
 5922TIP3    H241220   0.025   4.477   0.537
 5923TIP3   OH241221   0.205   4.675   0.735
 5923TIP3    H141222   0.230   4.611   0.801
 5923TIP3    H241223   0.262   4.750   0.752
 5924TIP3   OH241224   1.185   5.524   0.879
 5924TIP3    H141225   1.208   5.449   0.825
 5924TIP3    H241226   1.142   5.487   0.956
 5925TIP3   OH241227   0.932   4.948   1.076
 5925TIP3    H141228   0.972   4.870   1.037
 5925TIP3    H241229   0.994   4.975   1.144
 5926TIP3   OH241230   1.824   4.104   1.150
 5926TIP3    H141231   1.818   4.147   1.235
 5926TIP3    H241232   1.787   4.168   1.089
 5927TIP3   OH241233   1.246   4.371   1.080
 5927TIP3    H141234   1.259   4.276   1.079
 5927TIP3    H241235   1.228   4.394   0.989
 5928TIP3   OH241236   0.564   4.193   0.812
 5928TIP3    H141237   0.583   4.277   0.769
 5928TIP3    H241238   0.517   4.143   0.745
 5929TIP3   OH241239   1.321   4.207   0.670
 5929TIP3    H141240   1.361   4.173   0.750
 5929TIP3    H241241   1.390   4.257   0.627
 5930TIP3   OH241242   0.256   4.448   0.884
 5930TIP3    H141243   0.319   4.408   0.944
 5930TIP3    H241244   0.276   4.409   0.799
 5931TIP3   OH241245   0.718   4.589   0.822
 5931TIP3    H141246   0.796   4.549   0.859
 5931TIP3    H241247   0.683   4.523   0.763
 5932TIP3   OH241248   1.780   4.243   1.384
 5932TIP3    H141249   1.725   4.320   1.367
 5932TIP3    H241250   1.837   4.269   1.456
 5933TIP3   OH241251   0.439   4.092   1.237
 5933TIP3    H141252   0.417   4.167   1.183
 5933TIP3    H241253   0.371   4.089   1.304
 5934TIP3   OH241254   1.127   4.985   0.574
 5934TIP3    H141255   1.150   5.011   0.484
 5934TIP3    H241256   1.089   5.063   0.613
 5935TIP3   OH241257   0.706   4.866   1.213
 5935TIP3    H141258   0.648   4.939   1.234
 5935TIP3    H241259   0.781   4.907   1.169
 5936TIP3   OH241260   1.484   4.148   0.886
 5936TIP3    H141261   1.417   4.130   0.951
 5936TIP3    H241262   1.545   4.207   0.930
 5937TIP3   OH241263   0.417   4.274   1.028
 5937TIP3    H141264   0.474   4.330   1.081
 5937TIP3    H241265   0.474   4.242   0.958
 5938TIP3   OH241266   0.539   5.082   1.274
 5938TIP3    H141267   0.566   5.173   1.284
 5938TIP3    H241268   0.455   5.076   1.320
 5939TIP3   OH241269   0.172   5.027   0.447
 5939TIP3    H141270   0.079   5.040   0.429
 5939TIP3    H241271   0.197   5.105   0.497
 5940TIP3   OH241272   1.480   5.215   1.069
 5940TIP3    H141273   1.388   5.214   1.097
 5940TIP3    H241274   1.498   5.307   1.050
 5941TIP3   OH241275   1.522   3.958   1.154
 5941TIP3    H141276   1.453   4.023   1.165
 5941TIP3    H241277   1.602   4.002   1.185
 5942TIP3   OH241278   0.791   3.798   0.967
 5942TIP3    H141279   0.759   3.709   0.981
 5942TIP3    H241280   0.720   3.855   0.997
 5943TIP3   OH241281   1.301   5.348   0.677
 5943TIP3    H141282   1.343   5.262   0.668
 5943TIP3    H241283   1.373   5.409   0.690
 5944TIP3   OH241284   1.431   5.108   0.631
 5944TIP3    H141285   1.433   5.029   0.578
 5944TIP3    H241286   1.436   5.078   0.721
 5945TIP3   OH241287   1.611   5.004   1.436
 5945TIP3    H141288   1.600   4.942   1.363
 5945TIP3    H241289   1.621   5.089   1.393
 5946TIP3   OH241290   1.045   4.702   0.449
 5946TIP3    H141291   0.991   4.780   0.438
 5946TIP3    H241292   1.119   4.716   0.389
 5947TIP3   OH241293   1.062   4.553   0.136
 5947TIP3    H141294   1.114   4.604   0.197
 5947TIP3    H241295   1.123   4.490   0.098
 5948TIP3   OH241296   1.777   4.666   1.265
 5948TIP3    H141297   1.704   4.728   1.261
 5948TIP3    H241298   1.841   4.699   1.202
 5949TIP3   OH241299   1.441   4.805   0.534
 5949TIP3    H141300   1.375   4.775   0.596
 5949TIP3    H241301   1.491   4.726   0.512
 5950TIP3   OH241302   1.376   4.515   1.439
 5950TIP3    H141303   1.387   4.585   1.504
 5950TIP3    H241304   1.303   4.545   1.384
 5951TIP3   OH241305   0.542   4.775   0.714
 5951TIP3    H141306   0.508   4.735   0.634
 5951TIP3    H241307   0.606   4.712   0.747
 5952TIP3   OH241308   0.751   5.140   0.959
 5952TIP3    H141309   0.741   5.107   0.870
 5952TIP3    H241310   0.815   5.080   0.999
 5953TIP3   OH241311   0.595   4.667   1.059
 5953TIP3    H141312   0.650   4.656   0.981
 5953TIP3    H241313   0.640   4.734   1.111
 5954TIP3   OH241314   1.226   5.216   1.166
 5954TIP3    H141315   1.210   5.298   1.213
 5954TIP3    H241316   1.172   5.151   1.210
 5955TIP3   OH241317   0.635   5.013   1.548
 5955TIP3    H141318   0.668   5.099   1.573
 5955TIP3    H241319   0.610   5.023   1.456
 5956TIP3   OH241320   1.261   4.695   0.283
 5956TIP3    H141321   1.334   4.663   0.335
 5956TIP3    H241322   1.302   4.741   0.210
 5957TIP3   OH241323   0.402   4.716   1.476
 5957TIP3    H141324   0.410   4.795   1.530
 5957TIP3    H241325   0.310   4.691   1.485
 5958TIP3   OH241326   1.046   5.248   0.620
 5958TIP3    H141327   1.128   5.288   0.647
 5958TIP3    H241328   1.035   5.276   0.529
 5959TIP3   OH241329   0.389   5.342   1.628
 5959TIP3    H141330   0.442   5.337   1.548
 5959TIP3    H241331   0.453   5.344   1.699
 5960TIP3   OH241332   1.667   3.807   0.278
 5960TIP3    H141333   1.584   3.840   0.311
 5960TIP3    H241334   1.712   3.885   0.244
 5961TIP3   OH241335   0.434   4.669   0.480
 5961TIP3    H141336   0.396   4.735   0.421
 5961TIP3    H241337   0.367   4.601   0.486
 5962TIP3   OH241338   1.759   5.269   0.111
 5962TIP3    H141339   1.794   5.354   0.138
 5962TIP3    H241340   1.836   5.213   0.100
 5963TIP3   OH241341   0.133   4.897   1.361
 5963TIP3    H141342   0.039   4.915   1.360
 5963TIP3    H241343   0.141   4.813   1.406
 5964TIP3   OH241344   0.134   5.230   1.051
 5964TIP3    H141345   0.211   5.181   1.024
 5964TIP3    H241346   0.159   5.269   1.135
 5965TIP3   OH241347   1.888   5.292   1.643
 5965TIP3    H141348   1.876   5.198   1.630
 5965TIP3    H241349   1.804   5.322   1.679
 5966TIP3   OH241350   0.979   5.213   1.413
 5966TIP3    H141351   0.916   5.238   1.480
 5966TIP3    H241352   0.984   5.117   1.419
 5967TIP3   OH241353   1.011   5.600   0.446
 5967TIP3    H141354   1.028   5.623   0.354
 5967TIP3    H241355   1.027   5.682   0.494
 5968TIP3   OH241356   0.366   5.461   0.687
 5968TIP3    H141357   0.381   5.433   0.777
 5968TIP3    H241358   0.298   5.402   0.654
 5969TIP3   OH241359   1.355   5.541   0.181
 5969TIP3    H141360   1.404   5.468   0.144
 5969TIP3    H241361   1.318   5.506   0.262
 5970TIP3   OH241362   1.265   5.484   0.437
 5970TIP3    H141363   1.172   5.504   0.450
 5970TIP3    H241364   1.288   5.430   0.512
 5971TIP3   OH241365   1.576   4.366   1.614
 5971TIP3    H141366   1.502   4.421   1.587
 5971TIP3    H241367   1.576   4.370   1.709
 5972TIP3   OH241368   0.309   5.092   1.418
 5972TIP3    H141369   0.333   5.061   1.505
 5972TIP3    H241370   0.243   5.029   1.387
 5973TIP3   OH241371   0.558   3.930   1.042
 5973TIP3    H141372   0.495   3.940   0.971
 5973TIP3    H241373   0.533   3.997   1.106
 5974TIP3   OH241374   1.036   3.854   1.400
 5974TIP3    H141375   1.081   3.826   1.480
 5974TIP3    H241376   0.944   3.861   1.425
 5975TIP3   OH241377   1.327   4.238   1.457
 5975TIP3    H141378   1.273   4.227   1.535
 5975TIP3    H241379   1.344   4.332   1.452
 5976TIP3   OH241380   1.449   4.753   0.089
 5976TIP3    H141381   1.521   4.787   0.038
 5976TIP3    H241382   1.490   4.696   0.154
 5977TIP3   OH241383   1.037   4.121   0.122
 5977TIP3    H141384   0.957   4.114   0.174
 5977TIP3    H241385   1.007   4.128   0.031
 5978TIP3   OH241386   0.587   4.422   1.180
 5978TIP3    H141387   0.564   4.439   1.271
 5978TIP3    H241388   0.583   4.508   1.137
 5979TIP3   OH241389   0.590   4.415   0.653
 5979TIP3    H141390   0.495   4.411   0.651
 5979TIP3    H241391   0.618   4.396   0.564
 5980TIP3   OH241392   1.100   4.444   0.525
 5980TIP3    H141393   1.071   4.533   0.503
 5980TIP3    H241394   1.167   4.424   0.460
 5981TIP3   OH241395   1.011   4.488   1.665
 5981TIP3    H141396   0.989   4.408   1.712
 5981TIP3    H241397   1.085   4.526   1.714
 5982TIP3   OH241398   1.218   4.448   0.816
 5982TIP3    H141399   1.200   4.533   0.774
 5982TIP3    H241400   1.216   4.385   0.745
 5983TIP3   OH241401   0.322   4.374   1.350
 5983TIP3    H141402   0.367   4.406   1.428
 5983TIP3    H241403   0.275   4.296   1.379
 5984TIP3   OH241404   0.649   4.173   0.081
 5984TIP3    H141405   0.626   4.138   0.167
 5984TIP3    H241406   0.644   4.268   0.091
 5985TIP3   OH241407   0.131   4.169   0.729
 5985TIP3    H141408   0.140   4.161   0.824
 5985TIP3    H241409   0.074   4.096   0.704
 5986TIP3   OH241410   0.129   4.275   0.341
 5986TIP3    H141411   0.199   4.301   0.280
 5986TIP3    H241412   0.125   4.346   0.405
 5987TIP3   OH241413   1.144   4.539   1.268
 5987TIP3    H141414   1.185   4.479   1.206
 5987TIP3    H241415   1.086   4.484   1.320
 5988TIP3   OH241416   0.835   4.179   0.741
 5988TIP3    H141417   0.750   4.178   0.784
 5988TIP3    H241418   0.887   4.113   0.788
 5989TIP3   OH241419   0.328   4.354   0.636
 5989TIP3    H141420   0.250   4.390   0.593
 5989TIP3    H241421   0.315   4.259   0.636
 5990TIP3   OH241422   0.636   4.340   0.391
 5990TIP3    H141423   0.730   4.340   0.409
 5990TIP3    H241424   0.626   4.390   0.310
 5991TIP3   OH241425   1.277   4.093   1.053
 5991TIP3    H141426   1.231   4.086   1.137
 5991TIP3    H241427   1.244   4.019   1.002
 5992TIP3   OH241428   0.583   4.434   0.140
 5992TIP3    H141429   0.488   4.430   0.130
 5992TIP3    H241430   0.613   4.478   0.061
 5993TIP3   OH241431   1.612   5.661   1.736
 5993TIP3    H141432   1.633   5.692   1.648
 5993TIP3    H241433   1.685   5.690   1.790
 5994TIP3   OH241434   0.370   4.941   1.648
 5994TIP3    H141435   0.461   4.963   1.670
 5994TIP3    H241436   0.319   4.982   1.718
 5995TIP3   OH241437   0.926   4.457   0.953
 5995TIP3    H141438   0.990   4.407   0.903
 5995TIP3    H241439   0.902   4.399   1.025
 5996TIP3   OH241440   0.439   4.081   0.597
 5996TIP3    H141441   0.389   4.000   0.611
 5996TIP3    H241442   0.468   4.076   0.506
 5997TIP3   OH241443   0.839   4.307   1.184
 5997TIP3    H141444   0.757   4.357   1.187
 5997TIP3    H241445   0.887   4.336   1.261
 5998TIP3   OH241446   0.868   4.915   0.365
 5998TIP3    H141447   0.808   4.858   0.318
 5998TIP3    H241448   0.827   4.929   0.450
 5999TIP3   OH241449   1.581   4.852   1.207
 5999TIP3    H141450   1.637   4.908   1.152
 5999TIP3    H241451   1.504   4.835   1.153
 6000TIP3   OH241452   1.307   4.156   0.172
 6000TIP3    H141453   1.215   4.143   0.147
 6000TIP3    H241454   1.308   4.242   0.214
 6001TIP3   OH241455   1.014   4.948   1.546
 6001TIP3    H141456   1.064   4.891   1.604
 6001TIP3    H241457   0.948   4.988   1.604
 6002TIP3   OH241458   1.307   4.368   0.353
 6002TIP3    H141459   1.364   4.343   0.426
 6002TIP3    H241460   1.354   4.439   0.310
 6003TIP3   OH241461   0.400   4.840   0.943
 6003TIP3    H141462   0.452   4.831   0.863
 6003TIP3    H241463   0.440   4.777   1.004
 6004TIP3   OH241464   1.097   5.052   0.271
 6004TIP3    H141465   1.066   5.138   0.299
 6004TIP3    H241466   1.026   4.992   0.294
 6005TIP3   OH241467   0.137   4.653   1.493
 6005TIP3    H141468   0.145   4.627   1.585
 6005TIP3    H241469   0.044   4.637   1.472
 6006TIP3   OH241470   0.783   4.638   1.681
 6006TIP3    H141471   0.759   4.652   1.589
 6006TIP3    H241472   0.865   4.589   1.678
 6007TIP3   OH241473   1.236   5.218   1.527
 6007TIP3    H141474   1.151   5.228   1.484
 6007TIP3    H241475   1.216   5.225   1.620
 6008TIP3   OH241476   1.828   4.423   0.333
 6008TIP3    H141477   1.733   4.437   0.339
 6008TIP3    H241478   1.862   4.504   0.295
 6009TIP3   OH241479   1.842   5.014   1.589
 6009TIP3    H141480   1.749   5.018   1.567
 6009TIP3    H241481   1.885   4.993   1.506
 6010TIP3   OH241482   1.628   5.267   0.365
 6010TIP3    H141483   1.579   5.191   0.398
 6010TIP3    H241484   1.656   5.241   0.277
 6011TIP3   OH241485   1.363   4.782   1.035
 6011TIP3    H141486   1.269   4.766   1.034
 6011TIP3    H241487   1.402   4.703   0.998
 6012TIP3   OH241488   0.612   5.193   0.689
 6012TIP3    H141489   0.635   5.284   0.669
 6012TIP3    H241490   0.537   5.200   0.747
 6013TIP3   OH241491   0.194   4.635   0.179
 6013TIP3    H141492   0.250   4.707   0.210
 6013TIP3    H241493   0.105   4.665   0.197
 6014TIP3   OH241494   0.709   4.959   0.581
 6014TIP3    H141495   0.682   5.045   0.613
 6014TIP3    H241496   0.655   4.897   0.630
 6015TIP3   OH241497   0.864   5.405   1.250
 6015TIP3    H141498   0.923   5.480   1.256
 6015TIP3    H241499   0.907   5.336   1.300
 6016TIP3   OH241500   0.620   5.470   0.604
 6016TIP3    H141501   0.525   5.464   0.617
 6016TIP3    H241502   0.650   5.528   0.674
 6017TIP3   OH241503   1.120   4.968   1.285
 6017TIP3    H141504   1.090   4.952   1.374
 6017TIP3    H241505   1.209   4.934   1.283
 6018TIP3   OH241506   1.363   5.107   0.166
 6018TIP3    H141507   1.421   5.059   0.224
 6018TIP3    H241508   1.275   5.086   0.197
 6019TIP3   OH241509   1.446   5.387   1.464
 6019TIP3    H141510   1.367   5.336   1.481
 6019TIP3    H241511   1.415   5.463   1.415
 6020TIP3   OH241512   1.854   5.525   0.186
 6020TIP3    H141513   1.931   5.576   0.212
 6020TIP3    H241514   1.780   5.571   0.224
 6021TIP3   OH241515   0.230   4.096   1.431
 6021TIP3    H141516   0.171   4.139   1.493
 6021TIP3    H241517   0.262   4.019   1.478
 6022TIP3   OH241518   1.538   4.981   0.348
 6022TIP3    H141519   1.486   4.923   0.403
 6022TIP3    H241520   1.628   4.950   0.358
 6023TIP3   OH241521   0.234   5.333   1.289
 6023TIP3    H141522   0.264   5.251   1.330
 6023TIP3    H241523   0.227   5.395   1.361
 6024TIP3   OH241524   0.681   5.122   0.280
 6024TIP3    H141525   0.739   5.054   0.315
 6024TIP3    H241526   0.724   5.204   0.304
 6025TIP3   OH241527   0.326   4.856   0.300
 6025TIP3    H141528   0.269   4.908   0.356
 6025TIP3    H241529   0.377   4.920   0.252
 6026TIP3   OH241530   1.172   4.075   1.296
 6026TIP3    H141531   1.220   4.127   1.361
 6026TIP3    H241532   1.126   4.009   1.348
 6027TIP3   OH241533   1.214   4.071   0.456
 6027TIP3    H141534   1.216   4.134   0.384
 6027TIP3    H241535   1.243   4.121   0.533
 6028TIP3   OH241536   0.992   5.298   0.348
 6028TIP3    H141537   0.902   5.332   0.349
 6028TIP3    H241538   1.031   5.336   0.269
 6029TIP3   OH241539   0.883   4.284   0.493
 6029TIP3    H141540   0.958   4.342   0.504
 6029TIP3    H241541   0.864   4.252   0.582
 6030TIP3   OH241542   0.986   4.365   1.418
 6030TIP3    H141543   0.982   4.418   1.498
 6030TIP3    H241544   1.023   4.282   1.446
 6031TIP3   OH241545   0.989   3.946   0.555
 6031TIP3    H141546   0.988   3.969   0.648
 6031TIP3    H241547   1.067   3.991   0.520
 6032TIP3   OH241548   0.723   5.390   0.347
 6032TIP3    H141549   0.677   5.415   0.267
 6032TIP3    H241550   0.653   5.369   0.410
 6033TIP3   OH241551   0.560   4.085   0.336
 6033TIP3    H141552   0.562   4.177   0.361
 6033TIP3    H241553   0.650   4.054   0.348
 6034TIP3   OH241554   1.561   4.083   1.462
 6034TIP3    H141555   1.476   4.125   1.475
 6034TIP3    H241556   1.621   4.155   1.445
 6035TIP3   OH241557   1.464   4.539   0.930
 6035TIP3    H141558   1.380   4.502   0.905
 6035TIP3    H241559   1.505   4.471   0.984
 6036TIP3   OH241560   0.434   5.094   0.155
 6036TIP3    H141561   0.496   5.128   0.220
 6036TIP3    H241562   0.489   5.046   0.093
 6037TIP3   OH241563   0.303   4.384   0.141
 6037TIP3    H141564   0.263   4.471   0.145
 6037TIP3    H241565   0.259   4.340   0.069
 6038TIP3   OH241566   1.575   5.480   1.052
 6038TIP3    H141567   1.573   5.552   0.989
 6038TIP3    H241568   1.667   5.471   1.075
 6039TIP3   OH241569   0.290   3.900   0.924
 6039TIP3    H141570   0.250   3.983   0.949
 6039TIP3    H241571   0.280   3.845   1.001
 6040TIP3   OH241572   0.191   5.291   0.555
 6040TIP3    H141573   0.100   5.316   0.574
 6040TIP3    H241574   0.211   5.334   0.472
 6041TIP3   OH241575   0.196   5.504   1.743
 6041TIP3    H141576   0.226   5.497   1.834
 6041TIP3    H241577   0.258   5.452   1.693
 6042TIP3   OH241578   0.582   5.441   1.836
 6042TIP3    H141579   0.641   5.483   1.898
 6042TIP3    H241580   0.640   5.395   1.775
 6043TIP3   OH241581   1.087   5.387   0.108
 6043TIP3    H141582   1.034   5.347   0.039
 6043TIP3    H241583   1.176   5.388   0.072
 6044TIP3   OH241584   1.201   5.251   1.804
 6044TIP3    H141585   1.183   5.200   1.883
 6044TIP3    H241586   1.284   5.295   1.823
 6045TIP3   OH241587   1.477   5.331   0.051
 6045TIP3    H141588   1.434   5.254   0.088
 6045TIP3    H241589   1.571   5.310   0.055
 6046TIP3   OH241590   0.136   4.880   1.910
 6046TIP3    H141591   0.157   4.788   1.929
 6046TIP3    H241592   0.063   4.876   1.848
 6047TIP3   OH241593   0.620   4.943   0.023
 6047TIP3    H141594   0.646   4.896   0.102
 6047TIP3    H241595   0.626   4.878  -0.047
 6048TIP3   OH241596   0.775   4.906   1.757
 6048TIP3    H141597   0.729   4.939   1.680
 6048TIP3    H241598   0.790   4.814   1.739
 6049TIP3   OH241599   1.345   4.951   1.499
 6049TIP3    H141600   1.437   4.975   1.490
 6049TIP3    H241601   1.300   5.033   1.517
 6050TIP3   OH241602   0.208   4.573   1.744
 6050TIP3    H141603   0.287   4.523   1.723
 6050TIP3    H241604   0.226   4.613   1.829
 6051TIP3   OH241605   0.683   4.759   0.227
 6051TIP3    H141606   0.624   4.711   0.286
 6051TIP3    H241607   0.721   4.691   0.171
 6052TIP3   OH241608   0.581   4.508   1.442
 6052TIP3    H141609   0.518   4.575   1.468
 6052TIP3    H241610   0.661   4.557   1.424
 6053TIP3   OH241611   0.809   4.595   0.034
 6053TIP3    H141612   0.835   4.584  -0.057
 6053TIP3    H241613   0.889   4.581   0.084
 6054TIP3   OH241614   1.113   4.777   1.776
 6054TIP3    H141615   1.202   4.787   1.810
 6054TIP3    H241616   1.065   4.736   1.847
 6055TIP3   OH241617   1.676   4.879   8.470
 6055TIP3    H141618   1.654   4.940   8.399
 6055TIP3    H241619   1.692   4.936   8.546
 6056TIP3   OH241620   0.664   4.279   1.585
 6056TIP3    H141621   0.682   4.214   1.518
 6056TIP3    H241622   0.642   4.358   1.536
 6057TIP3   OH241623   0.696   4.117   1.344
 6057TIP3    H141624   0.748   4.168   1.283
 6057TIP3    H241625   0.607   4.119   1.308
 6058TIP3   OH241626   0.794   4.672   1.395
 6058TIP3    H141627   0.888   4.686   1.393
 6058TIP3    H241628   0.758   4.742   1.339
 6059TIP3   OH241629   1.241   4.415   1.884
 6059TIP3    H141630   1.235   4.342   1.945
 6059TIP3    H241631   1.328   4.452   1.899
 6060TIP3   OH241632   1.431   4.713   1.619
 6060TIP3    H141633   1.390   4.794   1.589
 6060TIP3    H241634   1.525   4.733   1.620
 6061TIP3   OH241635   0.414   4.401   1.694
 6061TIP3    H141636   0.387   4.318   1.734
 6061TIP3    H241637   0.509   4.393   1.684
 6062TIP3   OH241638   0.757   3.853   1.392
 6062TIP3    H141639   0.739   3.947   1.381
 6062TIP3    H241640   0.684   3.809   1.347
 6063TIP3   OH241641   0.911   4.247   1.751
 6063TIP3    H141642   0.915   4.200   1.834
 6063TIP3    H241643   0.818   4.248   1.728
 6064TIP3   OH241644   1.157   4.171   1.655
 6064TIP3    H141645   1.072   4.194   1.692
 6064TIP3    H241646   1.211   4.147   1.731
 6065TIP3   OH241647   1.317   4.078   1.874
 6065TIP3    H141648   1.291   3.986   1.882
 6065TIP3    H241649   1.284   4.119   1.953
 6066TIP3   OH241650   0.342   4.152   1.788
 6066TIP3    H141651   0.389   4.075   1.756
 6066TIP3    H241652   0.313   4.128   1.876
 6067TIP3   OH241653   0.781   3.801   1.661
 6067TIP3    H141654   0.836   3.723   1.658
 6067TIP3    H241655   0.765   3.822   1.569
 6068TIP3   OH241656   0.747   3.918   1.905
 6068TIP3    H141657   0.768   3.883   1.819
 6068TIP3    H241658   0.667   3.969   1.892
 6069TIP3   OH241659   0.766   5.675   0.266
 6069TIP3    H141660   0.850   5.674   0.220
 6069TIP3    H241661   0.701   5.693   0.198
 6070TIP3   OH241662   0.180   5.072   0.051
 6070TIP3    H141663   0.258   5.093   0.103
 6070TIP3    H241664   0.192   5.120  -0.031
 6071TIP3   OH241665   0.049   5.596   0.596
 6071TIP3    H141666  -0.041   5.622   0.617
 6071TIP3    H241667   0.082   5.557   0.677
 6072TIP3   OH241668   0.109   5.489   0.840
 6072TIP3    H141669   0.025   5.447   0.860
 6072TIP3    H241670   0.156   5.489   0.924
 6073TIP3   OH241671   1.839   5.484   1.138
 6073TIP3    H141672   1.826   5.469   1.231
 6073TIP3    H241673   1.889   5.566   1.133
 6074TIP3   OH241674   1.791   5.440   1.406
 6074TIP3    H141675   1.732   5.371   1.375
 6074TIP3    H241676   1.830   5.404   1.486
 6075TIP3   OH241677   1.618   5.047   1.862
 6075TIP3    H141678   1.542   5.060   1.920
 6075TIP3    H241679   1.679   5.116   1.888
 6076TIP3   OH241680   1.792   4.876   0.406
 6076TIP3    H141681   1.865   4.936   0.423
 6076TIP3    H241682   1.795   4.814   0.479
 6077TIP3   OH241683   1.846   4.686   0.610
 6077TIP3    H141684   1.764   4.648   0.643
 6077TIP3    H241685   1.893   4.713   0.689
 6078TIP3   OH241686   1.788   4.989   1.089
 6078TIP3    H141687   1.855   4.925   1.068
 6078TIP3    H241688   1.827   5.074   1.066
 6079TIP3   OH241689   1.619   5.247   1.308
 6079TIP3    H141690   1.549   5.290   1.356
 6079TIP3    H241691   1.580   5.226   1.223
 6080TIP3   OH241692   1.824   4.679   0.219
 6080TIP3    H141693   1.737   4.639   0.224
 6080TIP3    H241694   1.819   4.754   0.279
 6081TIP3   OH241695   1.579   4.381   0.003
 6081TIP3    H141696   1.672   4.401   0.010
 6081TIP3    H241697   1.575   4.285   0.008
 6082TIP3   OH241698   1.628   4.548   0.705
 6082TIP3    H141699   1.583   4.475   0.662
 6082TIP3    H241700   1.578   4.563   0.785
 6083TIP3   OH241701   0.151   4.766   1.054
 6083TIP3    H141702   0.218   4.819   1.010
 6083TIP3    H241703   0.198   4.720   1.123
 6084TIP3   OH241704   1.703   4.745   1.626
 6084TIP3    H141705   1.749   4.662   1.612
 6084TIP3    H241706   1.767   4.812   1.599
 6085TIP3   OH241707   1.813   4.496   1.585
 6085TIP3    H141708   1.732   4.449   1.601
 6085TIP3    H241709   1.881   4.441   1.625
 6086TIP3   OH241710   1.538   4.106   0.026
 6086TIP3    H141711   1.601   4.077   0.093
 6086TIP3    H241712   1.456   4.117   0.074
 6087TIP3   OH241713   1.523   4.326   0.532
 6087TIP3    H141714   1.582   4.253   0.514
 6087TIP3    H241715   1.550   4.394   0.471
 6088TIP3   OH241716   1.628   4.327   1.051
 6088TIP3    H141717   1.716   4.362   1.034
 6088TIP3    H241718   1.607   4.357   1.140
 6089TIP3   OH241719   1.613   4.446   1.300
 6089TIP3    H141720   1.535   4.470   1.349
 6089TIP3    H241721   1.667   4.525   1.300
 6090TIP3   OH241722   0.094   4.169   1.661
 6090TIP3    H141723   0.172   4.201   1.707
 6090TIP3    H241724   0.059   4.101   1.719
 6091TIP3   OH241725   1.879   3.908   1.851
 6091TIP3    H141726   1.917   3.828   1.813
 6091TIP3    H241727   1.859   3.963   1.775
 6092TIP3   OH241728   1.638   4.057   0.501
 6092TIP3    H141729   1.647   4.015   0.587
 6092TIP3    H241730   1.565   4.010   0.460
 6093TIP3   OH241731   0.176   4.137   1.003
 6093TIP3    H141732   0.108   4.170   1.062
 6093TIP3    H241733   0.251   4.194   1.018
 6094TIP3   OH241734   0.070   4.424   1.086
 6094TIP3    H141735   0.128   4.442   1.013
 6094TIP3    H241736   0.106   4.473   1.160
 6095TIP3   OH241737   1.773   4.069   1.657
 6095TIP3    H141738   1.712   4.101   1.724
 6095TIP3    H241739   1.719   4.056   1.579
 6096TIP3   OH241740   1.786   4.032   0.153
 6096TIP3    H141741   1.814   4.025   0.062
 6096TIP3    H241742   1.848   4.092   0.193
 6097TIP3   OH241743   0.087   4.008   0.454
 6097TIP3    H141744  -0.007   4.014   0.468
 6097TIP3    H241745   0.113   4.097   0.428
 6098TIP3   OH241746   1.497   5.540   0.669
 6098TIP3    H141747   1.578   5.519   0.622
 6098TIP3    H241748   1.526   5.586   0.748
 6099TIP3   OH241749   0.074   3.889   1.273
 6099TIP3    H141750  -0.021   3.879   1.267
 6099TIP3    H241751   0.087   3.972   1.319
 6100TIP3   OH241752   0.243   5.147   1.804
 6100TIP3    H141753   0.259   5.217   1.740
 6100TIP3    H241754   0.149   5.151   1.820
 6101TIP3   OH241755   0.585   5.345   1.326
 6101TIP3    H141756   0.566   5.435   1.301
 6101TIP3    H241757   0.672   5.348   1.366
 6102TIP3   OH241758   0.960   5.522   1.639
 6102TIP3    H141759   0.902   5.449   1.618
 6102TIP3    H241760   0.988   5.505   1.729
 6103TIP3   OH241761   1.252   5.663   1.552
 6103TIP3    H141762   1.223   5.572   1.560
 6103TIP3    H241763   1.279   5.688   1.640
 6104TIP3   OH241764   1.696   3.848   1.427
 6104TIP3    H141765   1.640   3.925   1.438
 6104TIP3    H241766   1.651   3.779   1.476
 6105TIP3   OH241767   0.305   5.667   1.373
 6105TIP3    H141768   0.219   5.694   1.341
 6105TIP3    H241769   0.306   5.693   1.465
 6106TIP3   OH241770   0.548   5.612   1.267
 6106TIP3    H141771   0.463   5.626   1.308
 6106TIP3    H241772   0.547   5.669   1.190
 6107TIP3   OH241773   1.017   5.634   1.156
 6107TIP3    H141774   0.932   5.657   1.118
 6107TIP3    H241775   1.026   5.693   1.231
 6108TIP3   OH241776   1.215   5.474   1.267
 6108TIP3    H141777   1.144   5.528   1.231
 6108TIP3    H241778   1.289   5.533   1.275
 6109TIP3   OH241779   1.460   5.606   1.272
 6109TIP3    H141780   1.480   5.697   1.254
 6109TIP3    H241781   1.498   5.557   1.199
 6110TIP3   OH241782   0.277   5.520   1.065
 6110TIP3    H141783   0.256   5.483   1.151
 6110TIP3    H241784   0.344   5.461   1.029
 6111TIP3   OH241785   0.460   5.360   0.928
 6111TIP3    H141786   0.438   5.273   0.961
 6111TIP3    H241787   0.546   5.379   0.965
 6112TIP3   OH241788   0.719   5.406   1.018
 6112TIP3    H141789   0.735   5.316   0.990
 6112TIP3    H241790   0.754   5.409   1.107
 6113TIP3   OH241791   0.976   3.961   0.833
 6113TIP3    H141792   0.927   3.908   0.896
 6113TIP3    H241793   1.068   3.944   0.853
 6114TIP3   OH241794   1.521   3.818   0.906
 6114TIP3    H141795   1.585   3.860   0.849
 6114TIP3    H241796   1.520   3.872   0.985
 6115TIP3   OH241797   1.709   3.899   0.725
 6115TIP3    H141798   1.776   3.837   0.697
 6115TIP3    H241799   1.757   3.978   0.749
 6116TIP3   OH241800   0.307   3.840   0.601
 6116TIP3    H141801   0.225   3.869   0.562
 6116TIP3    H241802   0.346   3.782   0.536
 6117TIP3   OH241803   0.224   3.820   0.307
 6117TIP3    H141804   0.252   3.874   0.233
 6117TIP3    H241805   0.166   3.877   0.358
 6118TIP3   OH241806   0.777   3.780   0.677
 6118TIP3    H141807   0.821   3.853   0.633
 6118TIP3    H241808   0.785   3.800   0.771
 6119TIP3   OH241809   1.233   3.875   0.878
 6119TIP3    H141810   1.327   3.872   0.861
 6119TIP3    H241811   1.205   3.784   0.874
 6120TIP3   OH241812   1.429   3.897   0.395
 6120TIP3    H141813   1.358   3.960   0.402
 6120TIP3    H241814   1.387   3.812   0.409
 6121TIP3   OH241815   0.222   5.434   0.318
 6121TIP3    H141816   0.129   5.414   0.315
 6121TIP3    H241817   0.227   5.529   0.320
 6122TIP3   OH241818   0.308   4.000   0.110
 6122TIP3    H141819   0.278   4.068   0.050
 6122TIP3    H241820   0.366   4.045   0.171
 6123TIP3   OH241821   0.836   4.058   0.346
 6123TIP3    H141822   0.886   4.000   0.404
 6123TIP3    H241823   0.850   4.145   0.382
 6124TIP3   OH241824   1.029   5.646   0.177
 6124TIP3    H141825   1.074   5.703   0.115
 6124TIP3    H241826   1.047   5.558   0.146
 6125TIP3   OH241827   1.709   5.496   0.487
 6125TIP3    H141828   1.677   5.412   0.453
 6125TIP3    H241829   1.685   5.560   0.421
 6126TIP3   OH241830   0.287   3.868   1.587
 6126TIP3    H141831   0.212   3.823   1.627
 6126TIP3    H241832   0.357   3.860   1.651
 6127TIP3   OH241833   0.460   3.826   1.798
 6127TIP3    H141834   0.537   3.771   1.789
 6127TIP3    H241835   0.400   3.775   1.852
 6128TIP3   OH241836   0.465   5.509   0.186
 6128TIP3    H141837   0.424   5.594   0.199
 6128TIP3    H241838   0.398   5.446   0.212
 6129TIP3   OH241839   1.328   3.784   1.842
 6129TIP3    H141840   1.315   3.730   1.920
 6129TIP3    H241841   1.423   3.784   1.828
 6130TIP3   OH241842   1.633   5.395   1.668
 6130TIP3    H141843   1.568   5.386   1.598
 6130TIP3    H241844   1.622   5.485   1.699
 6131TIP3   OH241845   3.074   4.721   0.706
 6131TIP3    H141846   3.069   4.812   0.735
 6131TIP3    H241847   3.015   4.717   0.631
 6132TIP3   OH241848   2.914   4.681   1.050
 6132TIP3    H141849   2.953   4.661   1.135
 6132TIP3    H241850   2.881   4.597   1.018
 6133TIP3   OH241851   2.179   4.648   1.205
 6133TIP3    H141852   2.177   4.558   1.237
 6133TIP3    H241853   2.223   4.697   1.274
 6134TIP3   OH241854   3.316   4.999   0.867
 6134TIP3    H141855   3.295   4.925   0.925
 6134TIP3    H241856   3.344   5.069   0.926
 6135TIP3   OH241857   2.325   5.107   0.966
 6135TIP3    H141858   2.285   5.020   0.960
 6135TIP3    H241859   2.412   5.090   1.002
 6136TIP3   OH241860   1.966   4.425   0.574
 6136TIP3    H141861   1.935   4.510   0.607
 6136TIP3    H241862   1.914   4.411   0.495
 6137TIP3   OH241863   2.028   4.715   0.823
 6137TIP3    H141864   2.056   4.625   0.838
 6137TIP3    H241865   2.105   4.768   0.843
 6138TIP3   OH241866   3.054   5.504   0.880
 6138TIP3    H141867   3.101   5.441   0.826
 6138TIP3    H241868   3.039   5.458   0.963
 6139TIP3   OH241869   2.800   4.936   1.089
 6139TIP3    H141870   2.832   4.851   1.059
 6139TIP3    H241871   2.870   4.970   1.145
 6140TIP3   OH241872   3.673   4.086   1.144
 6140TIP3    H141873   3.671   4.137   1.225
 6140TIP3    H241874   3.747   4.122   1.095
 6141TIP3   OH241875   3.108   4.340   1.076
 6141TIP3    H141876   3.155   4.256   1.072
 6141TIP3    H241877   3.116   4.376   0.987
 6142TIP3   OH241878   2.424   4.170   0.806
 6142TIP3    H141879   2.435   4.257   0.767
 6142TIP3    H241880   2.442   4.109   0.734
 6143TIP3   OH241881   3.230   4.225   0.662
 6143TIP3    H141882   3.275   4.205   0.744
 6143TIP3    H241883   3.297   4.266   0.607
 6144TIP3   OH241884   2.102   4.455   0.871
 6144TIP3    H141885   2.169   4.412   0.924
 6144TIP3    H241886   2.089   4.396   0.797
 6145TIP3   OH241887   2.625   4.604   0.811
 6145TIP3    H141888   2.718   4.601   0.836
 6145TIP3    H241889   2.603   4.513   0.790
 6146TIP3   OH241890   3.663   4.225   1.383
 6146TIP3    H141891   3.622   4.311   1.372
 6146TIP3    H241892   3.726   4.236   1.454
 6147TIP3   OH241893   2.308   4.104   1.218
 6147TIP3    H141894   2.281   4.182   1.169
 6147TIP3    H241895   2.247   4.100   1.292
 6148TIP3   OH241896   3.006   4.984   0.578
 6148TIP3    H141897   3.025   5.010   0.488
 6148TIP3    H241898   2.978   5.065   0.621
 6149TIP3   OH241899   2.561   4.859   1.208
 6149TIP3    H141900   2.511   4.931   1.246
 6149TIP3    H241901   2.641   4.900   1.174
 6150TIP3   OH241902   3.415   4.202   0.869
 6150TIP3    H141903   3.489   4.142   0.864
 6150TIP3    H241904   3.433   4.257   0.946
 6151TIP3   OH241905   2.282   4.293   1.008
 6151TIP3    H141906   2.336   4.346   1.066
 6151TIP3    H241907   2.344   4.249   0.950
 6152TIP3   OH241908   2.427   5.081   1.313
 6152TIP3    H141909   2.436   5.176   1.310
 6152TIP3    H241910   2.338   5.067   1.347
 6153TIP3   OH241911   2.009   5.049   0.408
 6153TIP3    H141912   1.988   5.103   0.332
 6153TIP3    H241913   2.032   5.113   0.476
 6154TIP3   OH241914   3.362   5.208   1.053
 6154TIP3    H141915   3.270   5.210   1.079
 6154TIP3    H241916   3.386   5.299   1.041
 6155TIP3   OH241917   3.418   3.951   1.135
 6155TIP3    H141918   3.351   4.018   1.124
 6155TIP3    H241919   3.499   3.999   1.150
 6156TIP3   OH241920   2.661   3.775   0.967
 6156TIP3    H141921   2.641   3.684   0.985
 6156TIP3    H241922   2.590   3.824   1.008
 6157TIP3   OH241923   3.194   5.350   0.698
 6157TIP3    H141924   3.234   5.266   0.675
 6157TIP3    H241925   3.267   5.412   0.697
 6158TIP3   OH241926   3.308   5.117   0.620
 6158TIP3    H141927   3.339   5.055   0.555
 6158TIP3    H241928   3.312   5.070   0.703
 6159TIP3   OH241929   3.485   5.003   1.428
 6159TIP3    H141930   3.484   4.941   1.355
 6159TIP3    H241931   3.508   5.087   1.388
 6160TIP3   OH241932   2.942   4.691   0.461
 6160TIP3    H141933   2.880   4.761   0.446
 6160TIP3    H241934   3.015   4.710   0.402
 6161TIP3   OH241935   2.956   4.565   0.134
 6161TIP3    H141936   3.005   4.616   0.198
 6161TIP3    H241937   3.017   4.497   0.105
 6162TIP3   OH241938   3.657   4.657   1.253
 6162TIP3    H141939   3.587   4.722   1.249
 6162TIP3    H241940   3.728   4.694   1.200
 6163TIP3   OH241941   3.299   4.737   0.536
 6163TIP3    H141942   3.230   4.745   0.602
 6163TIP3    H241943   3.369   4.688   0.579
 6164TIP3   OH241944   3.244   4.564   1.457
 6164TIP3    H141945   3.238   4.596   1.547
 6164TIP3    H241946   3.302   4.626   1.413
 6165TIP3   OH241947   2.433   4.771   0.705
 6165TIP3    H141948   2.416   4.742   0.615
 6165TIP3    H241949   2.506   4.717   0.734
 6166TIP3   OH241950   2.615   5.120   0.979
 6166TIP3    H141951   2.631   5.111   0.885
 6166TIP3    H241952   2.680   5.063   1.020
 6167TIP3   OH241953   2.466   4.663   1.040
 6167TIP3    H141954   2.531   4.662   0.970
 6167TIP3    H241955   2.498   4.730   1.101
 6168TIP3   OH241956   3.104   5.216   1.142
 6168TIP3    H141957   3.091   5.289   1.203
 6168TIP3    H241958   3.068   5.140   1.188
 6169TIP3   OH241959   2.585   5.112   1.544
 6169TIP3    H141960   2.526   5.171   1.591
 6169TIP3    H241961   2.537   5.088   1.464
 6170TIP3   OH241962   3.174   4.679   0.299
 6170TIP3    H141963   3.220   4.704   0.379
 6170TIP3    H241964   3.222   4.723   0.229
 6171TIP3   OH241965   2.271   4.724   1.471
 6171TIP3    H141966   2.284   4.794   1.535
 6171TIP3    H241967   2.178   4.701   1.478
 6172TIP3   OH241968   2.942   5.255   0.641
 6172TIP3    H141969   3.031   5.284   0.659
 6172TIP3    H241970   2.886   5.316   0.690
 6173TIP3   OH241971   2.403   5.292   1.644
 6173TIP3    H141972   2.395   5.330   1.557
 6173TIP3    H241973   2.313   5.272   1.670
 6174TIP3   OH241974   3.574   3.809   0.299
 6174TIP3    H141975   3.485   3.834   0.321
 6174TIP3    H241976   3.628   3.882   0.329
 6175TIP3   OH241977   2.347   4.682   0.447
 6175TIP3    H141978   2.304   4.759   0.410
 6175TIP3    H241979   2.279   4.615   0.450
 6176TIP3   OH241980   3.649   5.218   0.126
 6176TIP3    H141981   3.669   5.311   0.129
 6176TIP3    H241982   3.734   5.175   0.113
 6177TIP3   OH241983   1.970   4.919   1.363
 6177TIP3    H141984   1.931   4.906   1.276
 6177TIP3    H241985   1.982   4.831   1.397
 6178TIP3   OH241986   1.932   5.232   1.049
 6178TIP3    H141987   2.010   5.228   1.104
 6178TIP3    H241988   1.884   5.309   1.080
 6179TIP3   OH241989   3.756   5.281   1.641
 6179TIP3    H141990   3.749   5.186   1.633
 6179TIP3    H241991   3.670   5.309   1.673
 6180TIP3   OH241992   2.828   5.236   1.506
 6180TIP3    H141993   2.834   5.319   1.554
 6180TIP3    H241994   2.742   5.201   1.529
 6181TIP3   OH241995   2.904   5.569   0.469
 6181TIP3    H141996   2.900   5.602   0.379
 6181TIP3    H241997   2.878   5.644   0.523
 6182TIP3   OH241998   2.263   5.454   0.676
 6182TIP3    H141999   2.294   5.435   0.764
 6182TIP3    H242000   2.211   5.378   0.651
 6183TIP3   OH242001   3.200   5.512   0.164
 6183TIP3    H142002   3.280   5.465   0.142
 6183TIP3    H242003   3.202   5.519   0.260
 6184TIP3   OH242004   3.177   5.525   0.439
 6184TIP3    H142005   3.084   5.525   0.463
 6184TIP3    H242006   3.220   5.481   0.513
 6185TIP3   OH242007   3.452   4.371   1.631
 6185TIP3    H142008   3.426   4.416   1.711
 6185TIP3    H242009   3.438   4.278   1.650
 6186TIP3   OH242010   2.180   5.082   1.433
 6186TIP3    H142011   2.199   5.051   1.521
 6186TIP3    H242012   2.104   5.030   1.405
 6187TIP3   OH242013   2.438   3.911   1.066
 6187TIP3    H142014   2.363   3.891   1.009
 6187TIP3    H242015   2.407   3.982   1.122
 6188TIP3   OH242016   2.928   3.886   1.390
 6188TIP3    H142017   2.978   3.852   1.464
 6188TIP3    H242018   2.836   3.876   1.416
 6189TIP3   OH242019   3.200   4.272   1.456
 6189TIP3    H142020   3.151   4.255   1.536
 6189TIP3    H242021   3.227   4.364   1.463
 6190TIP3   OH242022   3.313   4.810   0.098
 6190TIP3    H142023   3.289   4.901   0.117
 6190TIP3    H242024   3.407   4.814   0.079
 6191TIP3   OH242025   2.875   4.116   0.079
 6191TIP3    H142026   2.787   4.137   0.111
 6191TIP3    H242027   2.910   4.055   0.145
 6192TIP3   OH242028   2.457   4.423   1.170
 6192TIP3    H142029   2.420   4.440   1.257
 6192TIP3    H242030   2.459   4.508   1.128
 6193TIP3   OH242031   2.447   4.410   0.683
 6193TIP3    H142032   2.400   4.493   0.685
 6193TIP3    H242033   2.462   4.393   0.590
 6194TIP3   OH242034   2.983   4.426   0.527
 6194TIP3    H142035   2.965   4.518   0.508
 6194TIP3    H242036   3.060   4.406   0.474
 6195TIP3   OH242037   2.878   4.498   1.707
 6195TIP3    H142038   2.835   4.417   1.733
 6195TIP3    H242039   2.930   4.524   1.783
 6196TIP3   OH242040   3.091   4.457   0.820
 6196TIP3    H142041   3.085   4.547   0.789
 6196TIP3    H242042   3.094   4.404   0.740
 6197TIP3   OH242043   2.203   4.397   1.335
 6197TIP3    H142044   2.250   4.437   1.408
 6197TIP3    H242045   2.171   4.313   1.369
 6198TIP3   OH242046   2.586   4.170   0.096
 6198TIP3    H142047   2.561   4.119   0.173
 6198TIP3    H242048   2.556   4.259   0.116
 6199TIP3   OH242049   1.869   4.112   0.752
 6199TIP3    H142050   1.931   4.144   0.818
 6199TIP3    H242051   1.907   4.138   0.669
 6200TIP3   OH242052   1.980   4.213   0.257
 6200TIP3    H142053   2.045   4.253   0.199
 6200TIP3    H242054   1.924   4.286   0.284
 6201TIP3   OH242055   3.030   4.561   1.274
 6201TIP3    H142056   3.124   4.544   1.277
 6201TIP3    H242057   3.010   4.598   1.359
 6202TIP3   OH242058   2.727   4.204   0.814
 6202TIP3    H142059   2.639   4.184   0.846
 6202TIP3    H242060   2.777   4.123   0.829
 6203TIP3   OH242061   2.145   4.230   0.636
 6203TIP3    H142062   2.075   4.292   0.618
 6203TIP3    H242063   2.203   4.236   0.561
 6204TIP3   OH242064   2.498   4.332   0.422
 6204TIP3    H142065   2.590   4.328   0.448
 6204TIP3    H242066   2.499   4.374   0.336
 6205TIP3   OH242067   3.174   4.073   1.064
 6205TIP3    H142068   3.109   4.066   1.134
 6205TIP3    H242069   3.147   4.008   1.000
 6206TIP3   OH242070   2.481   4.419   0.159
 6206TIP3    H142071   2.400   4.448   0.119
 6206TIP3    H242072   2.548   4.480   0.127
 6207TIP3   OH242073   3.472   5.653   1.723
 6207TIP3    H142074   3.502   5.692   1.641
 6207TIP3    H242075   3.543   5.668   1.784
 6208TIP3   OH242076   2.226   4.927   1.674
 6208TIP3    H142077   2.291   4.923   1.744
 6208TIP3    H242078   2.146   4.894   1.715
 6209TIP3   OH242079   2.844   4.424   0.953
 6209TIP3    H142080   2.931   4.425   0.912
 6209TIP3    H242081   2.801   4.347   0.918
 6210TIP3   OH242082   2.395   3.986   0.609
 6210TIP3    H142083   2.460   3.918   0.629
 6210TIP3    H242084   2.393   3.990   0.514
 6211TIP3   OH242085   2.702   4.318   1.255
 6211TIP3    H142086   2.626   4.365   1.219
 6211TIP3    H242087   2.712   4.354   1.343
 6212TIP3   OH242088   2.762   4.888   0.382
 6212TIP3    H142089   2.684   4.859   0.334
 6212TIP3    H242090   2.727   4.924   0.464
 6213TIP3   OH242091   3.463   4.847   1.203
 6213TIP3    H142092   3.521   4.903   1.152
 6213TIP3    H242093   3.387   4.833   1.147
 6214TIP3   OH242094   3.127   4.169   0.242
 6214TIP3    H142095   3.098   4.188   0.153
 6214TIP3    H242096   3.167   4.251   0.272
 6215TIP3   OH242097   2.872   4.953   1.495
 6215TIP3    H142098   2.884   4.920   1.584
 6215TIP3    H242099   2.855   5.047   1.506
 6216TIP3   OH242100   3.212   4.404   0.363
 6216TIP3    H142101   3.295   4.388   0.407
 6216TIP3    H242102   3.216   4.495   0.335
 6217TIP3   OH242103   2.264   4.827   0.918
 6217TIP3    H142104   2.324   4.818   0.844
 6217TIP3    H242105   2.301   4.769   0.985
 6218TIP3   OH242106   2.978   5.038   0.288
 6218TIP3    H142107   2.937   5.123   0.304
 6218TIP3    H242108   2.910   4.974   0.312
 6219TIP3   OH242109   2.002   4.674   1.486
 6219TIP3    H142110   2.021   4.645   1.575
 6219TIP3    H242111   1.925   4.623   1.460
 6220TIP3   OH242112   2.677   4.670   1.637
 6220TIP3    H142113   2.619   4.645   1.709
 6220TIP3    H242114   2.757   4.621   1.653
 6221TIP3   OH242115   3.109   5.203   1.487
 6221TIP3    H142116   3.016   5.215   1.469
 6221TIP3    H242117   3.120   5.230   1.578
 6222TIP3   OH242118   3.645   4.432   0.322
 6222TIP3    H142119   3.587   4.406   0.251
 6222TIP3    H242120   3.673   4.521   0.300
 6223TIP3   OH242121   3.708   5.005   1.586
 6223TIP3    H142122   3.621   5.006   1.546
 6223TIP3    H242123   3.766   4.974   1.517
 6224TIP3   OH242124   3.486   5.270   0.344
 6224TIP3    H142125   3.467   5.193   0.396
 6224TIP3    H242126   3.546   5.239   0.276
 6225TIP3   OH242127   3.251   4.781   1.031
 6225TIP3    H142128   3.157   4.766   1.035
 6225TIP3    H242129   3.287   4.701   0.992
 6226TIP3   OH242130   2.517   5.212   0.672
 6226TIP3    H142131   2.527   5.293   0.623
 6226TIP3    H242132   2.442   5.227   0.730
 6227TIP3   OH242133   2.091   4.689   0.142
 6227TIP3    H142134   2.125   4.748   0.210
 6227TIP3    H242135   1.996   4.688   0.157
 6228TIP3   OH242136   2.608   4.964   0.596
 6228TIP3    H142137   2.586   5.055   0.617
 6228TIP3    H242138   2.546   4.912   0.647
 6229TIP3   OH242139   2.718   5.387   1.294
 6229TIP3    H142140   2.774   5.463   1.276
 6229TIP3    H242141   2.769   5.334   1.356
 6230TIP3   OH242142   2.504   5.473   0.541
 6230TIP3    H142143   2.416   5.477   0.579
 6230TIP3    H242144   2.554   5.541   0.587
 6231TIP3   OH242145   3.017   4.972   1.265
 6231TIP3    H142146   2.962   4.961   1.343
 6231TIP3    H242147   3.105   4.949   1.295
 6232TIP3   OH242148   3.245   5.063   0.189
 6232TIP3    H142149   3.297   5.045   0.267
 6232TIP3    H242150   3.154   5.064   0.221
 6233TIP3   OH242151   3.330   5.380   1.444
 6233TIP3    H142152   3.247   5.333   1.444
 6233TIP3    H242153   3.313   5.458   1.391
 6234TIP3   OH242154   3.706   5.483   0.151
 6234TIP3    H142155   3.741   5.515   0.068
 6234TIP3    H242156   3.657   5.557   0.187
 6235TIP3   OH242157   2.142   4.130   1.439
 6235TIP3    H142158   2.074   4.177   1.487
 6235TIP3    H242159   2.160   4.053   1.493
 6236TIP3   OH242160   3.400   4.957   0.401
 6236TIP3    H142161   3.359   4.883   0.446
 6236TIP3    H242162   3.494   4.936   0.400
 6237TIP3   OH242163   2.114   5.326   1.260
 6237TIP3    H142164   2.147   5.252   1.310
 6237TIP3    H242165   2.098   5.394   1.326
 6238TIP3   OH242166   2.549   5.172   0.265
 6238TIP3    H142167   2.629   5.144   0.308
 6238TIP3    H242168   2.552   5.268   0.267
 6239TIP3   OH242169   2.200   4.876   0.316
 6239TIP3    H142170   2.130   4.920   0.365
 6239TIP3    H242171   2.244   4.947   0.269
 6240TIP3   OH242172   3.018   4.132   1.294
 6240TIP3    H142173   3.088   4.162   1.352
 6240TIP3    H242174   2.986   4.052   1.334
 6241TIP3   OH242175   3.093   4.050   0.486
 6241TIP3    H142176   3.102   4.094   0.402
 6241TIP3    H242177   3.133   4.110   0.549
 6242TIP3   OH242178   2.830   5.262   0.348
 6242TIP3    H142179   2.850   5.302   0.432
 6242TIP3    H242180   2.867   5.322   0.283
 6243TIP3   OH242181   2.747   4.290   0.541
 6243TIP3    H142182   2.830   4.337   0.533
 6243TIP3    H242183   2.742   4.265   0.633
 6244TIP3   OH242184   2.892   4.362   1.466
 6244TIP3    H142185   2.882   4.429   1.533
 6244TIP3    H242186   2.925   4.286   1.514
 6245TIP3   OH242187   2.859   3.939   0.578
 6245TIP3    H142188   2.861   3.954   0.672
 6245TIP3    H242189   2.941   3.976   0.545
 6246TIP3   OH242190   2.545   5.450   0.263
 6246TIP3    H142191   2.579   5.536   0.241
 6246TIP3    H242192   2.534   5.452   0.358
 6247TIP3   OH242193   2.448   4.071   0.336
 6247TIP3    H142194   2.443   4.161   0.368
 6247TIP3    H242195   2.539   4.046   0.349
 6248TIP3   OH242196   3.432   4.096   1.478
 6248TIP3    H142197   3.357   4.154   1.465
 6248TIP3    H242198   3.505   4.142   1.437
 6249TIP3   OH242199   3.345   4.543   0.921
 6249TIP3    H142200   3.267   4.490   0.904
 6249TIP3    H242201   3.398   4.489   0.981
 6250TIP3   OH242202   2.298   5.092   0.165
 6250TIP3    H142203   2.362   5.137   0.221
 6250TIP3    H242204   2.351   5.044   0.102
 6251TIP3   OH242205   2.110   4.414   0.091
 6251TIP3    H142206   2.113   4.507   0.112
 6251TIP3    H242207   2.041   4.406   0.025
 6252TIP3   OH242208   3.450   5.473   1.059
 6252TIP3    H142209   3.444   5.543   0.993
 6252TIP3    H242210   3.544   5.469   1.080
 6253TIP3   OH242211   2.213   3.848   0.924
 6253TIP3    H142212   2.180   3.813   0.841
 6253TIP3    H242213   2.180   3.789   0.991
 6254TIP3   OH242214   2.069   5.266   0.573
 6254TIP3    H142215   2.022   5.295   0.652
 6254TIP3    H242216   2.064   5.341   0.513
 6255TIP3   OH242217   2.022   5.558   1.709
 6255TIP3    H142218   2.092   5.538   1.771
 6255TIP3    H242219   1.985   5.473   1.686
 6256TIP3   OH242220   2.447   5.367   1.910
 6256TIP3    H142221   2.532   5.406   1.928
 6256TIP3    H242222   2.449   5.347   1.817
 6257TIP3   OH242223   2.954   5.392   0.140
 6257TIP3    H142224   2.936   5.348   0.057
 6257TIP3    H242225   3.047   5.417   0.134
 6258TIP3   OH242226   3.115   5.274   1.748
 6258TIP3    H142227   3.104   5.189   1.791
 6258TIP3    H242228   3.191   5.313   1.791
 6259TIP3   OH242229   3.358   5.302   0.043
 6259TIP3    H142230   3.335   5.242   0.114
 6259TIP3    H242231   3.453   5.307   0.047
 6260TIP3   OH242232   1.978   4.866   1.787
 6260TIP3    H142233   1.924   4.850   1.865
 6260TIP3    H242234   1.924   4.924   1.733
 6261TIP3   OH242235   2.468   4.913   0.031
 6261TIP3    H142236   2.498   4.884   0.117
 6261TIP3    H242237   2.491   4.841  -0.028
 6262TIP3   OH242238   2.657   4.930   1.736
 6262TIP3    H142239   2.636   4.985   1.660
 6262TIP3    H242240   2.672   4.843   1.699
 6263TIP3   OH242241   3.224   4.945   1.491
 6263TIP3    H142242   3.317   4.964   1.481
 6263TIP3    H242243   3.182   5.031   1.497
 6264TIP3   OH242244   2.077   4.597   1.742
 6264TIP3    H142245   2.098   4.539   1.816
 6264TIP3    H242246   2.044   4.677   1.783
 6265TIP3   OH242247   2.543   4.766   0.255
 6265TIP3    H142248   2.489   4.729   0.324
 6265TIP3    H242249   2.590   4.691   0.219
 6266TIP3   OH242250   2.448   4.514   1.438
 6266TIP3    H142251   2.393   4.587   1.465
 6266TIP3    H242252   2.532   4.554   1.415
 6267TIP3   OH242253   2.683   4.590   0.087
 6267TIP3    H142254   2.682   4.646   0.010
 6267TIP3    H242255   2.776   4.579   0.108
 6268TIP3   OH242256   3.077   4.774   1.881
 6268TIP3    H142257   3.135   4.735   1.816
 6268TIP3    H242258   3.023   4.701   1.913
 6269TIP3   OH242259   3.589   4.879   0.022
 6269TIP3    H142260   3.560   4.916  -0.062
 6269TIP3    H242261   3.630   4.952   0.068
 6270TIP3   OH242262   2.544   4.284   1.565
 6270TIP3    H142263   2.536   4.213   1.502
 6270TIP3    H242264   2.508   4.360   1.519
 6271TIP3   OH242265   2.550   4.100   1.347
 6271TIP3    H142266   2.606   4.162   1.300
 6271TIP3    H242267   2.465   4.105   1.303
 6272TIP3   OH242268   2.675   4.641   1.350
 6272TIP3    H142269   2.697   4.674   1.437
 6272TIP3    H242270   2.644   4.719   1.302
 6273TIP3   OH242271   3.165   4.436   1.868
 6273TIP3    H142272   3.138   4.353   1.908
 6273TIP3    H242273   3.260   4.440   1.883
 6274TIP3   OH242274   3.272   4.735   1.673
 6274TIP3    H142275   3.249   4.813   1.622
 6274TIP3    H242276   3.365   4.744   1.690
 6275TIP3   OH242277   2.411   4.316   1.816
 6275TIP3    H142278   2.318   4.336   1.812
 6275TIP3    H242279   2.439   4.315   1.724
 6276TIP3   OH242280   2.644   3.845   1.377
 6276TIP3    H142281   2.612   3.934   1.369
 6276TIP3    H242282   2.571   3.790   1.348
 6277TIP3   OH242283   2.764   4.247   1.737
 6277TIP3    H142284   2.725   4.220   1.820
 6277TIP3    H242285   2.689   4.258   1.678
 6278TIP3   OH242286   3.022   4.179   1.652
 6278TIP3    H142287   2.939   4.195   1.696
 6278TIP3    H242288   3.075   4.131   1.715
 6279TIP3   OH242289   3.176   4.036   1.868
 6279TIP3    H142290   3.173   3.953   1.914
 6279TIP3    H242291   3.140   4.099   1.929
 6280TIP3   OH242292   2.161   4.145   1.766
 6280TIP3    H142293   2.173   4.055   1.735
 6280TIP3    H242294   2.176   4.140   1.860
 6281TIP3   OH242295   2.679   3.812   1.648
 6281TIP3    H142296   2.735   3.734   1.641
 6281TIP3    H242297   2.653   3.831   1.558
 6282TIP3   OH242298   2.574   3.899   1.888
 6282TIP3    H142299   2.622   3.887   1.806
 6282TIP3    H242300   2.587   3.991   1.910
 6283TIP3   OH242301   2.649   5.686   0.156
 6283TIP3    H142302   2.740   5.693   0.186
 6283TIP3    H242303   2.657   5.669   0.062
 6284TIP3   OH242304   2.006   5.128   0.088
 6284TIP3    H142305   2.099   5.120   0.111
 6284TIP3    H242306   2.001   5.099  -0.003
 6285TIP3   OH242307   1.916   5.586   0.636
 6285TIP3    H142308   1.838   5.555   0.589
 6285TIP3    H242309   1.930   5.521   0.705
 6286TIP3   OH242310   1.979   5.387   0.816
 6286TIP3    H142311   1.939   5.315   0.864
 6286TIP3    H242312   2.030   5.434   0.881
 6287TIP3   OH242313   3.717   5.484   1.133
 6287TIP3    H142314   3.715   5.480   1.229
 6287TIP3    H242315   3.784   5.549   1.113
 6288TIP3   OH242316   3.677   5.438   1.406
 6288TIP3    H142317   3.628   5.365   1.369
 6288TIP3    H242318   3.721   5.401   1.482
 6289TIP3   OH242319   3.524   5.113   1.897
 6289TIP3    H142320   3.451   5.101   1.958
 6289TIP3    H242321   3.582   5.174   1.940
 6290TIP3   OH242322   3.663   4.866   0.419
 6290TIP3    H142323   3.733   4.931   0.416
 6290TIP3    H242324   3.684   4.810   0.493
 6291TIP3   OH242325   3.723   4.678   0.616
 6291TIP3    H142326   3.638   4.651   0.653
 6291TIP3    H242327   3.777   4.698   0.693
 6292TIP3   OH242328   3.659   4.988   1.078
 6292TIP3    H142329   3.734   4.928   1.076
 6292TIP3    H242330   3.699   5.075   1.066
 6293TIP3   OH242331   3.514   5.241   1.294
 6293TIP3    H142332   3.444   5.285   1.341
 6293TIP3    H242333   3.476   5.220   1.209
 6294TIP3   OH242334   3.698   4.687   0.215
 6294TIP3    H142335   3.654   4.731   0.142
 6294TIP3    H242336   3.687   4.747   0.289
 6295TIP3   OH242337   3.503   4.378   0.089
 6295TIP3    H142338   3.578   4.407   0.037
 6295TIP3    H242339   3.492   4.286   0.066
 6296TIP3   OH242340   3.469   4.569   0.676
 6296TIP3    H142341   3.464   4.477   0.648
 6296TIP3    H242342   3.437   4.569   0.766
 6297TIP3   OH242343   1.963   4.771   1.088
 6297TIP3    H142344   1.971   4.756   0.994
 6297TIP3    H242345   2.044   4.737   1.125
 6298TIP3   OH242346   3.552   4.764   1.685
 6298TIP3    H142347   3.605   4.691   1.654
 6298TIP3    H242348   3.610   4.840   1.678
 6299TIP3   OH242349   3.682   4.527   1.606
 6299TIP3    H142350   3.620   4.456   1.626
 6299TIP3    H242351   3.747   4.522   1.677
 6300TIP3   OH242352   3.487   4.112   0.020
 6300TIP3    H142353   3.574   4.087   0.051
 6300TIP3    H242354   3.440   4.029   0.007
 6301TIP3   OH242355   3.446   4.326   0.503
 6301TIP3    H142356   3.468   4.233   0.511
 6301TIP3    H242357   3.520   4.364   0.455
 6302TIP3   OH242358   3.494   4.370   1.076
 6302TIP3    H142359   3.588   4.380   1.062
 6302TIP3    H242360   3.482   4.387   1.169
 6303TIP3   OH242361   3.508   4.446   1.345
 6303TIP3    H142362   3.478   4.456   1.435
 6303TIP3    H242363   3.563   4.523   1.329
 6304TIP3   OH242364   1.965   4.257   1.610
 6304TIP3    H142365   2.036   4.248   1.674
 6304TIP3    H242366   1.900   4.193   1.637
 6305TIP3   OH242367   3.755   3.847   1.855
 6305TIP3    H142368   3.816   3.789   1.809
 6305TIP3    H242369   3.737   3.918   1.792
 6306TIP3   OH242370   3.494   4.054   0.528
 6306TIP3    H142371   3.524   4.012   0.608
 6306TIP3    H242372   3.433   3.991   0.489
 6307TIP3   OH242373   2.072   4.126   0.941
 6307TIP3    H142374   2.013   4.094   1.010
 6307TIP3    H242375   2.126   4.192   0.984
 6308TIP3   OH242376   1.892   4.405   1.057
 6308TIP3    H142377   1.958   4.438   0.996
 6308TIP3    H242378   1.905   4.458   1.136
 6309TIP3   OH242379   3.640   4.032   1.683
 6309TIP3    H142380   3.574   4.072   1.739
 6309TIP3    H242381   3.597   4.021   1.599
 6310TIP3   OH242382   3.739   4.026   0.102
 6310TIP3    H142383   3.775   3.951   0.149
 6310TIP3    H242384   3.773   4.102   0.150
 6311TIP3   OH242385   1.921   4.039   0.463
 6311TIP3    H142386   1.826   4.044   0.470
 6311TIP3    H242387   1.944   4.104   0.396
 6312TIP3   OH242388   3.383   5.537   0.657
 6312TIP3    H142389   3.462   5.527   0.605
 6312TIP3    H242390   3.412   5.584   0.735
 6313TIP3   OH242391   1.904   3.856   1.250
 6313TIP3    H142392   1.840   3.848   1.321
 6313TIP3    H242393   1.885   3.941   1.210
 6314TIP3   OH242394   2.150   5.224   1.727
 6314TIP3    H142395   2.060   5.251   1.708
 6314TIP3    H242396   2.142   5.133   1.756
 6315TIP3   OH242397   2.452   5.353   1.362
 6315TIP3    H142398   2.418   5.436   1.328
 6315TIP3    H242399   2.547   5.360   1.353
 6316TIP3   OH242400   2.842   5.490   1.619
 6316TIP3    H142401   2.852   5.460   1.709
 6316TIP3    H242402   2.921   5.541   1.601
 6317TIP3   OH242403   3.072   5.638   1.575
 6317TIP3    H142404   3.146   5.598   1.530
 6317TIP3    H242405   3.106   5.663   1.661
 6318TIP3   OH242406   3.595   3.851   1.440
 6318TIP3    H142407   3.508   3.889   1.448
 6318TIP3    H242408   3.580   3.756   1.439
 6319TIP3   OH242409   2.156   5.668   1.342
 6319TIP3    H142410   2.069   5.695   1.312
 6319TIP3    H242411   2.164   5.708   1.429
 6320TIP3   OH242412   2.408   5.605   1.262
 6320TIP3    H142413   2.320   5.626   1.293
 6320TIP3    H242414   2.419   5.656   1.182
 6321TIP3   OH242415   2.866   5.602   1.186
 6321TIP3    H142416   2.807   5.637   1.119
 6321TIP3    H242417   2.878   5.675   1.248
 6322TIP3   OH242418   3.083   5.457   1.274
 6322TIP3    H142419   3.007   5.508   1.244
 6322TIP3    H242420   3.157   5.519   1.267
 6323TIP3   OH242421   3.320   5.600   1.267
 6323TIP3    H142422   3.338   5.692   1.248
 6323TIP3    H242423   3.366   5.552   1.198
 6324TIP3   OH242424   2.135   5.493   1.025
 6324TIP3    H142425   2.117   5.451   1.109
 6324TIP3    H242426   2.218   5.455   0.996
 6325TIP3   OH242427   2.356   5.372   0.918
 6325TIP3    H142428   2.337   5.281   0.940
 6325TIP3    H242429   2.438   5.391   0.963
 6326TIP3   OH242430   2.601   5.393   1.043
 6326TIP3    H142431   2.613   5.300   1.020
 6326TIP3    H242432   2.633   5.399   1.134
 6327TIP3   OH242433   2.846   3.955   0.851
 6327TIP3    H142434   2.799   3.890   0.903
 6327TIP3    H242435   2.939   3.935   0.865
 6328TIP3   OH242436   3.431   3.813   0.895
 6328TIP3    H142437   3.500   3.862   0.851
 6328TIP3    H242438   3.419   3.859   0.978
 6329TIP3   OH242439   3.623   3.931   0.738
 6329TIP3    H142440   3.679   3.857   0.715
 6329TIP3    H242441   3.684   4.003   0.753
 6330TIP3   OH242442   2.133   3.832   0.666
 6330TIP3    H142443   2.042   3.810   0.644
 6330TIP3    H242444   2.182   3.753   0.643
 6331TIP3   OH242445   2.054   3.832   0.313
 6331TIP3    H142446   2.093   3.890   0.248
 6331TIP3    H242447   2.008   3.891   0.373
 6332TIP3   OH242448   2.606   3.818   0.684
 6332TIP3    H142449   2.689   3.850   0.648
 6332TIP3    H242450   2.625   3.802   0.777
 6333TIP3   OH242451   3.112   3.885   0.864
 6333TIP3    H142452   3.194   3.892   0.814
 6333TIP3    H242453   3.101   3.791   0.877
 6334TIP3   OH242454   3.319   3.866   0.415
 6334TIP3    H142455   3.241   3.922   0.418
 6334TIP3    H242456   3.288   3.779   0.441
 6335TIP3   OH242457   2.042   5.480   0.395
 6335TIP3    H142458   1.957   5.456   0.359
 6335TIP3    H242459   2.022   5.542   0.464
 6336TIP3   OH242460   2.221   3.950   0.120
 6336TIP3    H142461   2.272   3.870   0.107
 6336TIP3    H242462   2.277   4.005   0.175
 6337TIP3   OH242463   2.719   4.071   0.373
 6337TIP3    H142464   2.766   4.006   0.425
 6337TIP3    H242465   2.736   4.154   0.418
 6338TIP3   OH242466   2.920   5.655   0.205
 6338TIP3    H142467   3.008   5.688   0.184
 6338TIP3    H242468   2.922   5.563   0.177
 6339TIP3   OH242469   3.588   5.497   0.476
 6339TIP3    H142470   3.557   5.417   0.434
 6339TIP3    H242471   3.591   5.562   0.406
 6340TIP3   OH242472   2.149   3.879   1.619
 6340TIP3    H142473   2.079   3.825   1.655
 6340TIP3    H242474   2.228   3.852   1.668
 6341TIP3   OH242475   2.349   3.783   1.777
 6341TIP3    H142476   2.421   3.835   1.812
 6341TIP3    H242477   2.371   3.693   1.801
 6342TIP3   OH242478   2.166   5.493   0.129
 6342TIP3    H142479   2.146   5.484   0.222
 6342TIP3    H242480   2.243   5.438   0.116
 6343TIP3   OH242481   3.499   5.385   1.670
 6343TIP3    H142482   3.443   5.373   1.593
 6343TIP3    H242483   3.490   5.477   1.693
 6344TIP3   OH242484   4.971   4.765   0.671
 6344TIP3    H142485   4.960   4.860   0.670
 6344TIP3    H242486   4.897   4.731   0.620
 6345TIP3   OH242487   4.866   4.692   1.035
 6345TIP3    H142488   4.879   4.661   1.125
 6345TIP3    H242489   4.789   4.644   1.004
 6346TIP3   OH242490   4.053   4.649   1.213
 6346TIP3    H142491   4.055   4.559   1.245
 6346TIP3    H242492   4.112   4.697   1.271
 6347TIP3   OH242493   5.222   5.003   0.873
 6347TIP3    H142494   5.184   4.932   0.924
 6347TIP3    H242495   5.241   5.071   0.938
 6348TIP3   OH242496   4.197   5.105   0.965
 6348TIP3    H142497   4.162   5.016   0.959
 6348TIP3    H242498   4.287   5.094   0.995
 6349TIP3   OH242499   3.823   4.422   0.546
 6349TIP3    H142500   3.808   4.509   0.581
 6349TIP3    H242501   3.764   4.415   0.471
 6350TIP3   OH242502   3.904   4.698   0.828
 6350TIP3    H142503   3.933   4.609   0.851
 6350TIP3    H242504   3.982   4.752   0.841
 6351TIP3   OH242505   4.947   5.512   0.872
 6351TIP3    H142506   4.981   5.454   0.804
 6351TIP3    H242507   4.902   5.454   0.933
 6352TIP3   OH242508   4.685   4.959   1.070
 6352TIP3    H142509   4.734   4.901   1.012
 6352TIP3    H242510   4.746   4.979   1.141
 6353TIP3   OH242511   5.534   4.112   1.125
 6353TIP3    H142512   5.544   4.155   1.209
 6353TIP3    H242513   5.497   4.178   1.067
 6354TIP3   OH242514   5.037   4.371   1.094
 6354TIP3    H142515   5.034   4.282   1.130
 6354TIP3    H242516   4.996   4.363   1.007
 6355TIP3   OH242517   4.338   4.167   0.798
 6355TIP3    H142518   4.343   4.253   0.756
 6355TIP3    H242519   4.278   4.117   0.743
 6356TIP3   OH242520   5.106   4.229   0.663
 6356TIP3    H142521   5.152   4.207   0.744
 6356TIP3    H242522   5.172   4.272   0.608
 6357TIP3   OH242523   3.989   4.439   0.888
 6357TIP3    H142524   4.053   4.402   0.949
 6357TIP3    H242525   4.015   4.406   0.802
 6358TIP3   OH242526   4.476   4.567   0.827
 6358TIP3    H142527   4.551   4.519   0.863
 6358TIP3    H242528   4.431   4.503   0.771
 6359TIP3   OH242529   5.542   4.241   1.370
 6359TIP3    H142530   5.487   4.318   1.354
 6359TIP3    H242531   5.593   4.264   1.447
 6360TIP3   OH242532   4.211   4.103   1.236
 6360TIP3    H142533   4.179   4.171   1.176
 6360TIP3    H242534   4.149   4.104   1.308
 6361TIP3   OH242535   4.902   5.012   0.576
 6361TIP3    H142536   4.905   5.028   0.482
 6361TIP3    H242537   4.867   5.093   0.613
 6362TIP3   OH242538   4.450   4.869   1.192
 6362TIP3    H142539   4.398   4.940   1.232
 6362TIP3    H242540   4.525   4.914   1.153
 6363TIP3   OH242541   5.244   4.193   0.894
 6363TIP3    H142542   5.187   4.150   0.957
 6363TIP3    H242543   5.301   4.249   0.948
 6364TIP3   OH242544   4.177   4.270   1.012
 6364TIP3    H142545   4.233   4.326   1.065
 6364TIP3    H242546   4.236   4.229   0.949
 6365TIP3   OH242547   4.307   5.076   1.311
 6365TIP3    H142548   4.314   5.172   1.307
 6365TIP3    H242549   4.223   5.060   1.353
 6366TIP3   OH242550   3.872   5.043   0.389
 6366TIP3    H142551   3.880   5.084   0.303
 6366TIP3    H242552   3.896   5.112   0.451
 6367TIP3   OH242553   5.262   5.202   1.070
 6367TIP3    H142554   5.170   5.202   1.098
 6367TIP3    H242555   5.281   5.293   1.049
 6368TIP3   OH242556   5.297   3.971   1.194
 6368TIP3    H142557   5.223   4.010   1.148
 6368TIP3    H242558   5.374   4.013   1.156
 6369TIP3   OH242559   4.551   3.789   0.982
 6369TIP3    H142560   4.524   3.698   0.992
 6369TIP3    H242561   4.475   3.840   1.010
 6370TIP3   OH242562   5.072   5.364   0.668
 6370TIP3    H142563   5.110   5.277   0.655
 6370TIP3    H242564   5.148   5.421   0.683
 6371TIP3   OH242565   5.202   5.126   0.626
 6371TIP3    H142566   5.211   5.055   0.562
 6371TIP3    H242567   5.209   5.083   0.711
 6372TIP3   OH242568   5.375   5.002   1.434
 6372TIP3    H142569   5.363   4.942   1.361
 6372TIP3    H242570   5.387   5.088   1.393
 6373TIP3   OH242571   4.820   4.697   0.442
 6373TIP3    H142572   4.757   4.767   0.426
 6373TIP3    H242573   4.898   4.722   0.392
 6374TIP3   OH242574   4.818   4.572   0.137
 6374TIP3    H142575   4.864   4.601   0.216
 6374TIP3    H242576   4.887   4.537   0.081
 6375TIP3   OH242577   5.549   4.665   1.252
 6375TIP3    H142578   5.475   4.726   1.251
 6375TIP3    H242579   5.607   4.696   1.183
 6376TIP3   OH242580   5.198   4.718   0.529
 6376TIP3    H142581   5.125   4.737   0.588
 6376TIP3    H242582   5.261   4.671   0.583
 6377TIP3   OH242583   5.147   4.529   1.438
 6377TIP3    H142584   5.151   4.590   1.512
 6377TIP3    H242585   5.076   4.562   1.384
 6378TIP3   OH242586   4.324   4.765   0.703
 6378TIP3    H142587   4.304   4.731   0.616
 6378TIP3    H242588   4.383   4.700   0.741
 6379TIP3   OH242589   4.479   5.129   0.975
 6379TIP3    H142590   4.485   5.137   0.880
 6379TIP3    H242591   4.556   5.077   0.999
 6380TIP3   OH242592   4.335   4.665   1.047
 6380TIP3    H142593   4.395   4.649   0.974
 6380TIP3    H242594   4.377   4.736   1.097
 6381TIP3   OH242595   5.009   5.205   1.169
 6381TIP3    H142596   4.987   5.281   1.222
 6381TIP3    H242597   4.957   5.134   1.206
 6382TIP3   OH242598   4.470   5.088   1.540
 6382TIP3    H142599   4.409   5.143   1.589
 6382TIP3    H242600   4.422   5.065   1.460
 6383TIP3   OH242601   5.064   4.659   0.297
 6383TIP3    H142602   5.114   4.684   0.375
 6383TIP3    H242603   5.106   4.706   0.225
 6384TIP3   OH242604   4.163   4.710   1.485
 6384TIP3    H142605   4.177   4.775   1.554
 6384TIP3    H242606   4.069   4.692   1.488
 6385TIP3   OH242607   4.815   5.271   0.617
 6385TIP3    H142608   4.897   5.317   0.636
 6385TIP3    H242609   4.783   5.313   0.537
 6386TIP3   OH242610   4.276   5.260   1.628
 6386TIP3    H142611   4.259   5.300   1.543
 6386TIP3    H242612   4.189   5.236   1.660
 6387TIP3   OH242613   5.431   3.812   0.279
 6387TIP3    H142614   5.348   3.844   0.314
 6387TIP3    H242615   5.471   3.888   0.238
 6388TIP3   OH242616   4.245   4.678   0.442
 6388TIP3    H142617   4.189   4.749   0.410
 6388TIP3    H242618   4.188   4.601   0.442
 6389TIP3   OH242619   5.528   5.208   0.125
 6389TIP3    H142620   5.544   5.302   0.129
 6389TIP3    H242621   5.615   5.169   0.115
 6390TIP3   OH242622   3.857   4.903   1.372
 6390TIP3    H142623   3.846   4.879   1.281
 6390TIP3    H242624   3.873   4.820   1.417
 6391TIP3   OH242625   3.807   5.230   1.052
 6391TIP3    H142626   3.888   5.225   1.102
 6391TIP3    H242627   3.763   5.308   1.084
 6392TIP3   OH242628   5.639   5.298   1.653
 6392TIP3    H142629   5.629   5.203   1.647
 6392TIP3    H242630   5.553   5.329   1.680
 6393TIP3   OH242631   4.708   5.224   1.515
 6393TIP3    H142632   4.702   5.303   1.568
 6393TIP3    H242633   4.625   5.179   1.530
 6394TIP3   OH242634   4.798   5.587   0.459
 6394TIP3    H142635   4.793   5.618   0.368
 6394TIP3    H242636   4.762   5.659   0.511
 6395TIP3   OH242637   4.138   5.456   0.676
 6395TIP3    H142638   4.165   5.430   0.764
 6395TIP3    H242639   4.081   5.384   0.647
 6396TIP3   OH242640   5.092   5.503   0.147
 6396TIP3    H142641   5.160   5.440   0.124
 6396TIP3    H242642   5.098   5.511   0.242
 6397TIP3   OH242643   5.065   5.531   0.429
 6397TIP3    H142644   4.971   5.546   0.442
 6397TIP3    H242645   5.091   5.475   0.502
 6398TIP3   OH242646   5.374   4.380   1.648
 6398TIP3    H142647   5.304   4.445   1.658
 6398TIP3    H242648   5.347   4.307   1.704
 6399TIP3   OH242649   4.069   5.068   1.447
 6399TIP3    H142650   4.081   5.057   1.541
 6399TIP3    H242651   3.993   5.015   1.425
 6400TIP3   OH242652   4.314   3.911   1.065
 6400TIP3    H142653   4.235   3.901   1.012
 6400TIP3    H242654   4.294   3.983   1.124
 6401TIP3   OH242655   4.816   3.876   1.401
 6401TIP3    H142656   4.861   3.850   1.481
 6401TIP3    H242657   4.723   3.876   1.425
 6402TIP3   OH242658   5.102   4.254   1.476
 6402TIP3    H142659   5.034   4.248   1.543
 6402TIP3    H242660   5.118   4.348   1.468
 6403TIP3   OH242661   5.190   4.804   0.100
 6403TIP3    H142662   5.167   4.895   0.118
 6403TIP3    H242663   5.281   4.807   0.072
 6404TIP3   OH242664   4.789   4.128   0.124
 6404TIP3    H142665   4.708   4.113   0.173
 6404TIP3    H242666   4.763   4.120   0.032
 6405TIP3   OH242667   4.344   4.421   1.172
 6405TIP3    H142668   4.322   4.439   1.263
 6405TIP3    H242669   4.336   4.507   1.128
 6406TIP3   OH242670   4.330   4.402   0.658
 6406TIP3    H142671   4.235   4.396   0.657
 6406TIP3    H242672   4.356   4.390   0.566
 6407TIP3   OH242673   4.865   4.442   0.537
 6407TIP3    H142674   4.844   4.531   0.510
 6407TIP3    H242675   4.941   4.418   0.484
 6408TIP3   OH242676   4.789   4.477   1.694
 6408TIP3    H142677   4.743   4.402   1.731
 6408TIP3    H242678   4.868   4.485   1.748
 6409TIP3   OH242679   4.938   4.391   0.837
 6409TIP3    H142680   4.937   4.478   0.798
 6409TIP3    H242681   4.975   4.334   0.770
 6410TIP3   OH242682   4.078   4.398   1.340
 6410TIP3    H142683   4.122   4.439   1.415
 6410TIP3    H242684   4.053   4.311   1.371
 6411TIP3   OH242685   4.418   4.162   0.083
 6411TIP3    H142686   4.405   4.130   0.172
 6411TIP3    H242687   4.406   4.257   0.089
 6412TIP3   OH242688   3.794   4.140   0.763
 6412TIP3    H142689   3.838   4.134   0.847
 6412TIP3    H242690   3.819   4.226   0.728
 6413TIP3   OH242691   3.834   4.230   0.263
 6413TIP3    H142692   3.903   4.271   0.212
 6413TIP3    H242693   3.776   4.302   0.289
 6414TIP3   OH242694   4.922   4.553   1.268
 6414TIP3    H142695   4.966   4.486   1.214
 6414TIP3    H242696   4.862   4.503   1.323
 6415TIP3   OH242697   4.617   4.147   0.768
 6415TIP3    H142698   4.523   4.137   0.783
 6415TIP3    H242699   4.647   4.206   0.837
 6416TIP3   OH242700   4.065   4.328   0.645
 6416TIP3    H142701   3.986   4.350   0.595
 6416TIP3    H242702   4.082   4.236   0.623
 6417TIP3   OH242703   4.396   4.342   0.395
 6417TIP3    H142704   4.490   4.339   0.415
 6417TIP3    H242705   4.391   4.384   0.310
 6418TIP3   OH242706   5.067   4.067   1.063
 6418TIP3    H142707   5.014   4.075   1.143
 6418TIP3    H242708   5.018   4.006   1.008
 6419TIP3   OH242709   4.363   4.432   0.129
 6419TIP3    H142710   4.291   4.439   0.067
 6419TIP3    H242711   4.435   4.482   0.090
 6420TIP3   OH242712   5.363   5.663   1.750
 6420TIP3    H142713   5.380   5.712   1.669
 6420TIP3    H242714   5.418   5.706   1.815
 6421TIP3   OH242715   4.133   4.887   1.702
 6421TIP3    H142716   4.212   4.882   1.756
 6421TIP3    H242717   4.063   4.911   1.763
 6422TIP3   OH242718   4.677   4.410   0.938
 6422TIP3    H142719   4.771   4.401   0.919
 6422TIP3    H242720   4.668   4.380   1.028
 6423TIP3   OH242721   4.160   4.066   0.600
 6423TIP3    H142722   4.114   3.986   0.626
 6423TIP3    H242723   4.201   4.044   0.517
 6424TIP3   OH242724   4.608   4.326   1.196
 6424TIP3    H142725   4.525   4.373   1.195
 6424TIP3    H242726   4.654   4.357   1.274
 6425TIP3   OH242727   4.642   4.900   0.372
 6425TIP3    H142728   4.570   4.858   0.325
 6425TIP3    H242729   4.605   4.926   0.456
 6426TIP3   OH242730   5.350   4.847   1.207
 6426TIP3    H142731   5.406   4.908   1.160
 6426TIP3    H242732   5.274   4.836   1.150
 6427TIP3   OH242733   5.044   4.151   0.229
 6427TIP3    H142734   4.960   4.148   0.182
 6427TIP3    H242735   5.053   4.242   0.255
 6428TIP3   OH242736   4.778   4.925   1.515
 6428TIP3    H142737   4.812   4.884   1.594
 6428TIP3    H242738   4.747   5.011   1.543
 6429TIP3   OH242739   5.084   4.391   0.369
 6429TIP3    H142740   5.171   4.380   0.408
 6429TIP3    H242741   5.084   4.480   0.334
 6430TIP3   OH242742   4.142   4.818   0.907
 6430TIP3    H142743   4.204   4.814   0.834
 6430TIP3    H242744   4.183   4.765   0.976
 6431TIP3   OH242745   4.869   5.044   0.295
 6431TIP3    H142746   4.833   5.132   0.305
 6431TIP3    H242747   4.794   4.986   0.311
 6432TIP3   OH242748   3.896   4.671   1.515
 6432TIP3    H142749   3.911   4.672   1.609
 6432TIP3    H242750   3.817   4.617   1.504
 6433TIP3   OH242751   4.585   4.667   1.696
 6433TIP3    H142752   4.512   4.609   1.673
 6433TIP3    H242753   4.663   4.612   1.689
 6434TIP3   OH242754   4.990   5.197   1.500
 6434TIP3    H142755   4.896   5.202   1.485
 6434TIP3    H242756   5.002   5.228   1.590
 6435TIP3   OH242757   5.536   4.432   0.326
 6435TIP3    H142758   5.475   4.410   0.255
 6435TIP3    H242759   5.562   4.522   0.307
 6436TIP3   OH242760   5.593   4.991   1.594
 6436TIP3    H142761   5.507   5.009   1.556
 6436TIP3    H242762   5.651   4.980   1.519
 6437TIP3   OH242763   5.420   5.258   0.382
 6437TIP3    H142764   5.357   5.193   0.414
 6437TIP3    H242765   5.446   5.226   0.296
 6438TIP3   OH242766   5.138   4.782   1.027
 6438TIP3    H142767   5.043   4.770   1.027
 6438TIP3    H242768   5.173   4.702   0.987
 6439TIP3   OH242769   4.413   5.194   0.706
 6439TIP3    H142770   4.433   5.277   0.662
 6439TIP3    H242771   4.321   5.201   0.729
 6440TIP3   OH242772   3.975   4.673   0.151
 6440TIP3    H142773   4.015   4.733   0.214
 6440TIP3    H242774   3.881   4.675   0.173
 6441TIP3   OH242775   4.500   4.956   0.597
 6441TIP3    H142776   4.483   5.043   0.632
 6441TIP3    H242777   4.440   4.898   0.644
 6442TIP3   OH242778   4.599   5.374   1.300
 6442TIP3    H142779   4.659   5.445   1.276
 6442TIP3    H242780   4.647   5.322   1.364
 6443TIP3   OH242781   4.399   5.451   0.581
 6443TIP3    H142782   4.307   5.466   0.603
 6443TIP3    H242783   4.446   5.525   0.620
 6444TIP3   OH242784   4.884   4.968   1.266
 6444TIP3    H142785   4.842   4.956   1.351
 6444TIP3    H242786   4.966   4.920   1.272
 6445TIP3   OH242787   5.137   5.058   0.195
 6445TIP3    H142788   5.184   5.032   0.274
 6445TIP3    H242789   5.045   5.064   0.222
 6446TIP3   OH242790   5.209   5.389   1.461
 6446TIP3    H142791   5.126   5.342   1.455
 6446TIP3    H242792   5.198   5.465   1.404
 6447TIP3   OH242793   5.582   5.476   0.140
 6447TIP3    H142794   5.585   5.502   0.048
 6447TIP3    H242795   5.533   5.547   0.183
 6448TIP3   OH242796   4.034   4.126   1.448
 6448TIP3    H142797   3.960   4.166   1.492
 6448TIP3    H242798   4.054   4.048   1.499
 6449TIP3   OH242799   5.284   4.950   0.406
 6449TIP3    H142800   5.247   4.872   0.446
 6449TIP3    H242801   5.378   4.935   0.406
 6450TIP3   OH242802   3.997   5.338   1.264
 6450TIP3    H142803   4.027   5.259   1.310
 6450TIP3    H242804   4.006   5.408   1.329
 6451TIP3   OH242805   4.422   5.148   0.275
 6451TIP3    H142806   4.496   5.101   0.312
 6451TIP3    H242807   4.442   5.241   0.288
 6452TIP3   OH242808   4.077   4.864   0.322
 6452TIP3    H142809   4.005   4.910   0.366
 6452TIP3    H242810   4.125   4.933   0.276
 6453TIP3   OH242811   4.941   4.110   1.296
 6453TIP3    H142812   4.992   4.154   1.365
 6453TIP3    H242813   4.893   4.042   1.342
 6454TIP3   OH242814   4.977   4.058   0.485
 6454TIP3    H142815   4.992   4.094   0.397
 6454TIP3    H242816   5.016   4.123   0.543
 6455TIP3   OH242817   4.736   5.281   0.328
 6455TIP3    H142818   4.652   5.326   0.339
 6455TIP3    H242819   4.778   5.328   0.255
 6456TIP3   OH242820   4.645   4.282   0.518
 6456TIP3    H142821   4.721   4.340   0.522
 6456TIP3    H242822   4.633   4.253   0.609
 6457TIP3   OH242823   4.770   4.383   1.430
 6457TIP3    H142824   4.767   4.435   1.510
 6457TIP3    H242825   4.797   4.296   1.458
 6458TIP3   OH242826   4.742   3.962   0.597
 6458TIP3    H142827   4.703   4.037   0.642
 6458TIP3    H242828   4.824   3.996   0.561
 6459TIP3   OH242829   4.488   5.409   0.323
 6459TIP3    H142830   4.500   5.495   0.283
 6459TIP3    H242831   4.458   5.429   0.412
 6460TIP3   OH242832   4.321   4.079   0.342
 6460TIP3    H142833   4.326   4.171   0.370
 6460TIP3    H242834   4.411   4.046   0.351
 6461TIP3   OH242835   5.333   4.093   1.493
 6461TIP3    H142836   5.249   4.139   1.492
 6461TIP3    H242837   5.392   4.150   1.443
 6462TIP3   OH242838   5.225   4.524   0.939
 6462TIP3    H142839   5.149   4.489   0.985
 6462TIP3    H242840   5.300   4.476   0.974
 6463TIP3   OH242841   4.165   5.090   0.181
 6463TIP3    H142842   4.231   5.136   0.233
 6463TIP3    H242843   4.216   5.040   0.116
 6464TIP3   OH242844   3.964   4.399   0.090
 6464TIP3    H142845   3.988   4.490   0.107
 6464TIP3    H242846   3.887   4.405   0.032
 6465TIP3   OH242847   5.344   5.469   1.062
 6465TIP3    H142848   5.331   5.541   1.002
 6465TIP3    H242849   5.439   5.468   1.078
 6466TIP3   OH242850   4.064   3.876   0.950
 6466TIP3    H142851   4.054   3.865   0.856
 6466TIP3    H242852   4.035   3.792   0.987
 6467TIP3   OH242853   3.929   5.264   0.555
 6467TIP3    H142854   3.887   5.300   0.633
 6467TIP3    H242855   3.919   5.332   0.489
 6468TIP3   OH242856   3.904   5.543   1.706
 6468TIP3    H142857   3.964   5.525   1.779
 6468TIP3    H242858   3.869   5.457   1.682
 6469TIP3   OH242859   4.313   5.393   1.872
 6469TIP3    H142860   4.397   5.372   1.913
 6469TIP3    H242861   4.313   5.343   1.790
 6470TIP3   OH242862   4.840   5.401   0.108
 6470TIP3    H142863   4.812   5.366   0.024
 6470TIP3    H242864   4.932   5.425   0.096
 6471TIP3   OH242865   5.008   5.279   1.760
 6471TIP3    H142866   4.987   5.194   1.798
 6471TIP3    H242867   5.078   5.314   1.815
 6472TIP3   OH242868   5.249   5.284   0.070
 6472TIP3    H142869   5.212   5.208   0.114
 6472TIP3    H242870   5.344   5.269   0.071
 6473TIP3   OH242871   4.328   4.917   0.049
 6473TIP3    H142872   4.372   4.879   0.125
 6473TIP3    H242873   4.367   4.872  -0.026
 6474TIP3   OH242874   4.577   4.942   1.748
 6474TIP3    H142875   4.538   4.980   1.669
 6474TIP3    H242876   4.589   4.849   1.726
 6475TIP3   OH242877   5.115   4.942   1.505
 6475TIP3    H142878   5.204   4.973   1.490
 6475TIP3    H242879   5.062   5.022   1.505
 6476TIP3   OH242880   3.892   4.614   1.790
 6476TIP3    H142881   3.914   4.543   1.850
 6476TIP3    H242882   3.903   4.694   1.841
 6477TIP3   OH242883   4.438   4.756   0.249
 6477TIP3    H142884   4.381   4.722   0.319
 6477TIP3    H242885   4.470   4.677   0.205
 6478TIP3   OH242886   4.349   4.515   1.436
 6478TIP3    H142887   4.287   4.581   1.464
 6478TIP3    H242888   4.428   4.564   1.411
 6479TIP3   OH242889   4.568   4.582   0.026
 6479TIP3    H142890   4.594   4.553  -0.061
 6479TIP3    H242891   4.650   4.588   0.075
 6480TIP3   OH242892   4.905   4.796   1.754
 6480TIP3    H142893   4.988   4.754   1.731
 6480TIP3    H242894   4.874   4.746   1.830
 6481TIP3   OH242895   5.461   4.873   0.014
 6481TIP3    H142896   5.421   4.903  -0.067
 6481TIP3    H242897   5.492   4.952   0.057
 6482TIP3   OH242898   4.436   4.279   1.558
 6482TIP3    H142899   4.448   4.215   1.488
 6482TIP3    H242900   4.408   4.359   1.513
 6483TIP3   OH242901   4.469   4.114   1.330
 6483TIP3    H142902   4.520   4.171   1.272
 6483TIP3    H242903   4.380   4.117   1.295
 6484TIP3   OH242904   4.557   4.672   1.356
 6484TIP3    H142905   4.623   4.716   1.410
 6484TIP3    H242906   4.520   4.741   1.301
 6485TIP3   OH242907   5.032   4.435   1.890
 6485TIP3    H142908   5.017   4.347   1.924
 6485TIP3    H242909   5.120   4.458   1.920
 6486TIP3   OH242910   5.168   4.712   1.642
 6486TIP3    H142911   5.142   4.793   1.599
 6486TIP3    H242912   5.258   4.727   1.672
 6487TIP3   OH242913   4.286   4.316   1.790
 6487TIP3    H142914   4.195   4.287   1.779
 6487TIP3    H242915   4.325   4.304   1.703
 6488TIP3   OH242916   4.533   3.851   1.389
 6488TIP3    H142917   4.512   3.943   1.373
 6488TIP3    H242918   4.457   3.803   1.355
 6489TIP3   OH242919   4.640   4.249   1.751
 6489TIP3    H142920   4.600   4.228   1.836
 6489TIP3    H242921   4.566   4.258   1.691
 6490TIP3   OH242922   4.886   4.177   1.632
 6490TIP3    H142923   4.806   4.194   1.681
 6490TIP3    H242924   4.941   4.127   1.693
 6491TIP3   OH242925   5.070   4.033   1.798
 6491TIP3    H142926   5.164   4.051   1.800
 6491TIP3    H242927   5.035   4.074   1.876
 6492TIP3   OH242928   4.041   4.172   1.781
 6492TIP3    H142929   4.065   4.080   1.782
 6492TIP3    H242930   4.024   4.194   1.872
 6493TIP3   OH242931   4.535   3.785   1.659
 6493TIP3    H142932   4.601   3.715   1.657
 6493TIP3    H242933   4.524   3.810   1.567
 6494TIP3   OH242934   4.559   3.923   1.897
 6494TIP3    H142935   4.544   3.889   1.809
 6494TIP3    H242936   4.502   3.999   1.904
 6495TIP3   OH242937   4.543   5.629   0.167
 6495TIP3    H142938   4.631   5.660   0.187
 6495TIP3    H242939   4.532   5.646   0.073
 6496TIP3   OH242940   3.896   5.095   0.097
 6496TIP3    H142941   3.988   5.102   0.121
 6496TIP3    H242942   3.897   5.084   0.002
 6497TIP3   OH242943   3.780   5.596   0.654
 6497TIP3    H142944   3.726   5.558   0.585
 6497TIP3    H242945   3.802   5.522   0.711
 6498TIP3   OH242946   3.858   5.384   0.816
 6498TIP3    H142947   3.823   5.312   0.867
 6498TIP3    H242948   3.909   5.436   0.878
 6499TIP3   OH242949   5.611   5.483   1.133
 6499TIP3    H142950   5.599   5.494   1.228
 6499TIP3    H242951   5.678   5.547   1.110
 6500TIP3   OH242952   5.547   5.463   1.406
 6500TIP3    H142953   5.498   5.388   1.373
 6500TIP3    H242954   5.592   5.430   1.484
 6501TIP3   OH242955   5.436   5.085   1.962
 6501TIP3    H142956   5.344   5.081   1.988
 6501TIP3    H242957   5.473   5.156   2.015
 6502TIP3   OH242958   5.551   4.867   0.422
 6502TIP3    H142959   5.620   4.933   0.425
 6502TIP3    H242960   5.571   4.808   0.495
 6503TIP3   OH242961   5.603   4.667   0.614
 6503TIP3    H142962   5.520   4.641   0.654
 6503TIP3    H242963   5.657   4.696   0.688
 6504TIP3   OH242964   5.586   4.981   1.137
 6504TIP3    H142965   5.642   4.920   1.088
 6504TIP3    H242966   5.611   5.067   1.104
 6505TIP3   OH242967   5.394   5.248   1.315
 6505TIP3    H142968   5.322   5.291   1.361
 6505TIP3    H242969   5.359   5.231   1.228
 6506TIP3   OH242970   5.584   4.691   0.215
 6506TIP3    H142971   5.532   4.729   0.144
 6506TIP3    H242972   5.571   4.751   0.288
 6507TIP3   OH242973   5.385   4.379   0.100
 6507TIP3    H142974   5.453   4.402   0.037
 6507TIP3    H242975   5.357   4.291   0.074
 6508TIP3   OH242976   5.355   4.554   0.691
 6508TIP3    H142977   5.341   4.467   0.653
 6508TIP3    H242978   5.307   4.551   0.774
 6509TIP3   OH242979   3.848   4.781   1.093
 6509TIP3    H142980   3.854   4.764   0.999
 6509TIP3    H242981   3.928   4.743   1.130
 6510TIP3   OH242982   5.448   4.751   1.675
 6510TIP3    H142983   5.503   4.677   1.650
 6510TIP3    H242984   5.490   4.827   1.634
 6511TIP3   OH242985   5.611   4.525   1.637
 6511TIP3    H142986   5.536   4.466   1.649
 6511TIP3    H242987   5.667   4.509   1.713
 6512TIP3   OH242988   5.307   4.124   0.037
 6512TIP3    H142989   5.380   4.079   0.079
 6512TIP3    H242990   5.232   4.106   0.093
 6513TIP3   OH242991   5.329   4.324   0.507
 6513TIP3    H142992   5.353   4.231   0.509
 6513TIP3    H242993   5.399   4.365   0.457
 6514TIP3   OH242994   5.420   4.356   1.048
 6514TIP3    H142995   5.511   4.385   1.039
 6514TIP3    H242996   5.394   4.383   1.136
 6515TIP3   OH242997   5.379   4.450   1.302
 6515TIP3    H142998   5.300   4.474   1.351
 6515TIP3    H242999   5.430   4.531   1.299
 6516TIP3   OH243000   3.830   4.222   1.608
 6516TIP3    H143001   3.899   4.233   1.673
 6516TIP3    H243002   3.771   4.157   1.646
 6517TIP3   OH243003   5.647   3.825   1.859
 6517TIP3    H143004   5.708   3.762   1.821
 6517TIP3    H243005   5.638   3.893   1.792
 6518TIP3   OH243006   5.397   4.054   0.511
 6518TIP3    H143007   5.426   4.015   0.593
 6518TIP3    H243008   5.329   3.995   0.479
 6519TIP3   OH243009   3.931   4.117   1.001
 6519TIP3    H143010   3.974   4.031   0.999
 6519TIP3    H243011   4.003   4.179   1.016
 6520TIP3   OH243012   3.765   4.415   1.059
 6520TIP3    H143013   3.839   4.424   1.000
 6520TIP3    H243014   3.788   4.467   1.135
 6521TIP3   OH243015   5.528   4.040   1.699
 6521TIP3    H143016   5.476   4.080   1.769
 6521TIP3    H243017   5.467   4.035   1.625
 6522TIP3   OH243018   5.550   4.028   0.139
 6522TIP3    H143019   5.587   4.003   0.055
 6522TIP3    H243020   5.609   4.095   0.173
 6523TIP3   OH243021   3.761   4.006   0.409
 6523TIP3    H143022   3.706   4.033   0.483
 6523TIP3    H243023   3.796   4.088   0.374
 6524TIP3   OH243024   5.283   5.528   0.682
 6524TIP3    H143025   5.359   5.525   0.624
 6524TIP3    H243026   5.312   5.582   0.756
 6525TIP3   OH243027   3.800   3.860   1.257
 6525TIP3    H143028   3.740   3.854   1.331
 6525TIP3    H243029   3.769   3.937   1.208
 6526TIP3   OH243030   4.030   5.190   1.728
 6526TIP3    H143031   3.936   5.210   1.723
 6526TIP3    H243032   4.037   5.131   1.803
 6527TIP3   OH243033   4.328   5.352   1.352
 6527TIP3    H143034   4.303   5.441   1.327
 6527TIP3    H243035   4.423   5.352   1.351
 6528TIP3   OH243036   4.699   5.474   1.640
 6528TIP3    H143037   4.715   5.450   1.731
 6528TIP3    H243038   4.775   5.525   1.614
 6529TIP3   OH243039   4.934   5.604   1.576
 6529TIP3    H143040   4.990   5.543   1.527
 6529TIP3    H243041   4.981   5.618   1.658
 6530TIP3   OH243042   5.442   3.843   1.483
 6530TIP3    H143043   5.392   3.925   1.474
 6530TIP3    H243044   5.387   3.777   1.441
 6531TIP3   OH243045   4.045   5.658   1.363
 6531TIP3    H143046   3.964   5.692   1.325
 6531TIP3    H243047   4.048   5.695   1.451
 6532TIP3   OH243048   4.301   5.619   1.278
 6532TIP3    H143049   4.212   5.634   1.308
 6532TIP3    H243050   4.308   5.667   1.195
 6533TIP3   OH243051   4.751   5.583   1.187
 6533TIP3    H143052   4.692   5.617   1.119
 6533TIP3    H243053   4.765   5.657   1.246
 6534TIP3   OH243054   4.974   5.455   1.289
 6534TIP3    H143055   4.896   5.496   1.251
 6534TIP3    H243056   5.045   5.517   1.271
 6535TIP3   OH243057   5.212   5.596   1.269
 6535TIP3    H143058   5.234   5.688   1.256
 6535TIP3    H243059   5.256   5.550   1.198
 6536TIP3   OH243060   4.007   5.498   1.032
 6536TIP3    H143061   3.996   5.454   1.116
 6536TIP3    H243062   4.088   5.463   0.996
 6537TIP3   OH243063   4.224   5.374   0.924
 6537TIP3    H143064   4.208   5.281   0.944
 6537TIP3    H243065   4.307   5.393   0.967
 6538TIP3   OH243066   4.471   5.395   1.052
 6538TIP3    H143067   4.481   5.304   1.024
 6538TIP3    H243068   4.504   5.396   1.142
 6539TIP3   OH243069   4.796   3.915   0.909
 6539TIP3    H143070   4.712   3.889   0.945
 6539TIP3    H243071   4.775   3.964   0.830
 6540TIP3   OH243072   5.343   3.812   0.895
 6540TIP3    H143073   5.404   3.871   0.849
 6540TIP3    H243074   5.257   3.849   0.878
 6541TIP3   OH243075   5.522   3.939   0.730
 6541TIP3    H143076   5.573   3.863   0.700
 6541TIP3    H243077   5.587   4.007   0.745
 6542TIP3   OH243078   4.033   3.827   0.676
 6542TIP3    H143079   3.940   3.806   0.661
 6542TIP3    H243080   4.078   3.744   0.666
 6543TIP3   OH243081   3.911   3.838   0.251
 6543TIP3    H143082   3.987   3.889   0.223
 6543TIP3    H243083   3.873   3.889   0.322
 6544TIP3   OH243084   4.529   3.793   0.693
 6544TIP3    H143085   4.600   3.847   0.659
 6544TIP3    H243086   4.537   3.800   0.788
 6545TIP3   OH243087   5.083   3.861   0.834
 6545TIP3    H143088   5.050   3.902   0.754
 6545TIP3    H243089   5.020   3.791   0.853
 6546TIP3   OH243090   5.197   3.882   0.419
 6546TIP3    H143091   5.119   3.937   0.428
 6546TIP3    H243092   5.165   3.793   0.429
 6547TIP3   OH243093   3.895   5.447   0.355
 6547TIP3    H143094   3.828   5.441   0.288
 6547TIP3    H243095   3.922   5.539   0.355
 6548TIP3   OH243096   4.132   3.967   0.154
 6548TIP3    H143097   4.166   3.989   0.068
 6548TIP3    H243098   4.194   4.005   0.216
 6549TIP3   OH243099   4.600   4.069   0.350
 6549TIP3    H143100   4.654   4.001   0.391
 6549TIP3    H243101   4.621   4.149   0.399
 6550TIP3   OH243102   4.821   5.662   0.192
 6550TIP3    H143103   4.908   5.691   0.165
 6550TIP3    H243104   4.815   5.572   0.160
 6551TIP3   OH243105   5.486   5.501   0.491
 6551TIP3    H143106   5.464   5.415   0.456
 6551TIP3    H243107   5.479   5.560   0.416
 6552TIP3   OH243108   4.047   3.876   1.608
 6552TIP3    H143109   3.979   3.817   1.640
 6552TIP3    H243110   4.119   3.865   1.670
 6553TIP3   OH243111   4.210   3.794   1.812
 6553TIP3    H143112   4.304   3.777   1.824
 6553TIP3    H243113   4.168   3.741   1.881
 6554TIP3   OH243114   4.092   5.560   0.073
 6554TIP3    H143115   4.044   5.576   0.154
 6554TIP3    H243116   4.144   5.482   0.090
 6555TIP3   OH243117   5.382   5.395   1.685
 6555TIP3    H143118   5.320   5.386   1.613
 6555TIP3    H243119   5.376   5.487   1.711
 6556TIP3   OH243120   6.845   4.762   0.660
 6556TIP3    H143121   6.843   4.855   0.638
 6556TIP3    H243122   6.760   4.745   0.702
 6557TIP3   OH243123   6.720   4.696   1.030
 6557TIP3    H143124   6.748   4.672   1.118
 6557TIP3    H243125   6.668   4.621   1.000
 6558TIP3   OH243126   5.950   4.606   1.150
 6558TIP3    H143127   5.960   4.542   1.220
 6558TIP3    H243128   6.040   4.634   1.130
 6559TIP3   OH243129   7.126   5.014   0.865
 6559TIP3    H143130   7.087   4.941   0.914
 6559TIP3    H243131   7.146   5.079   0.933
 6560TIP3   OH243132   6.095   5.107   0.965
 6560TIP3    H143133   6.059   5.020   0.953
 6560TIP3    H243134   6.186   5.092   0.991
 6561TIP3   OH243135   5.710   4.409   0.558
 6561TIP3    H143136   5.690   4.498   0.588
 6561TIP3    H243137   5.658   4.398   0.478
 6562TIP3   OH243138   5.798   4.712   0.808
 6562TIP3    H143139   5.834   4.625   0.827
 6562TIP3    H243140   5.872   4.772   0.821
 6563TIP3   OH243141   6.838   5.501   0.885
 6563TIP3    H143142   6.870   5.441   0.818
 6563TIP3    H243143   6.801   5.444   0.952
 6564TIP3   OH243144   6.577   4.943   1.064
 6564TIP3    H143145   6.615   4.862   1.030
 6564TIP3    H243146   6.641   4.975   1.128
 6565TIP3   OH243147   7.419   4.117   1.145
 6565TIP3    H143148   7.426   4.158   1.231
 6565TIP3    H243149   7.451   4.182   1.083
 6566TIP3   OH243150   6.899   4.376   1.086
 6566TIP3    H143151   6.915   4.283   1.103
 6566TIP3    H243152   6.875   4.380   0.994
 6567TIP3   OH243153   6.197   4.147   0.792
 6567TIP3    H143154   6.226   4.228   0.750
 6567TIP3    H243155   6.165   4.093   0.720
 6568TIP3   OH243156   6.986   4.233   0.656
 6568TIP3    H143157   7.025   4.197   0.736
 6568TIP3    H243158   7.059   4.273   0.610
 6569TIP3   OH243159   5.892   4.461   0.873
 6569TIP3    H143160   5.961   4.435   0.934
 6569TIP3    H243161   5.911   4.412   0.793
 6570TIP3   OH243162   6.353   4.566   0.843
 6570TIP3    H143163   6.438   4.533   0.873
 6570TIP3    H243164   6.320   4.498   0.784
 6571TIP3   OH243165   7.424   4.240   1.386
 6571TIP3    H143166   7.370   4.318   1.377
 6571TIP3    H243167   7.472   4.253   1.468
 6572TIP3   OH243168   6.078   4.112   1.200
 6572TIP3    H143169   6.065   4.205   1.182
 6572TIP3    H243170   6.033   4.098   1.284
 6573TIP3   OH243171   6.832   5.014   0.556
 6573TIP3    H143172   6.811   5.026   0.463
 6573TIP3    H243173   6.782   5.081   0.601
 6574TIP3   OH243174   6.330   4.883   1.179
 6574TIP3    H143175   6.284   4.953   1.224
 6574TIP3    H243176   6.406   4.924   1.140
 6575TIP3   OH243177   7.099   4.167   0.894
 6575TIP3    H143178   7.040   4.127   0.958
 6575TIP3    H243179   7.156   4.224   0.946
 6576TIP3   OH243180   6.100   4.313   0.997
 6576TIP3    H143181   6.146   4.361   1.067
 6576TIP3    H243182   6.166   4.299   0.930
 6577TIP3   OH243183   6.196   5.083   1.316
 6577TIP3    H143184   6.207   5.178   1.310
 6577TIP3    H243185   6.107   5.071   1.351
 6578TIP3   OH243186   5.762   5.048   0.398
 6578TIP3    H143187   5.756   5.088   0.311
 6578TIP3    H243188   5.783   5.121   0.457
 6579TIP3   OH243189   7.153   5.206   1.070
 6579TIP3    H143190   7.059   5.207   1.088
 6579TIP3    H243191   7.175   5.297   1.052
 6580TIP3   OH243192   7.171   3.968   1.159
 6580TIP3    H143193   7.097   4.029   1.156
 6580TIP3    H243194   7.249   4.024   1.156
 6581TIP3   OH243195   6.457   3.795   0.976
 6581TIP3    H143196   6.430   3.704   0.990
 6581TIP3    H243197   6.379   3.847   0.999
 6582TIP3   OH243198   6.958   5.348   0.672
 6582TIP3    H143199   7.007   5.268   0.656
 6582TIP3    H243200   7.024   5.415   0.685
 6583TIP3   OH243201   7.091   5.110   0.608
 6583TIP3    H143202   7.010   5.065   0.588
 6583TIP3    H243203   7.118   5.076   0.693
 6584TIP3   OH243204   7.252   4.990   1.445
 6584TIP3    H143205   7.240   4.935   1.368
 6584TIP3    H243206   7.259   5.079   1.410
 6585TIP3   OH243207   6.696   4.690   0.394
 6585TIP3    H143208   6.635   4.764   0.395
 6585TIP3    H243209   6.783   4.731   0.397
 6586TIP3   OH243210   6.689   4.568   0.145
 6586TIP3    H143211   6.694   4.609   0.232
 6586TIP3    H243212   6.770   4.518   0.138
 6587TIP3   OH243213   7.394   4.637   1.216
 6587TIP3    H143214   7.325   4.704   1.222
 6587TIP3    H243215   7.461   4.677   1.159
 6588TIP3   OH243216   7.079   4.734   0.521
 6588TIP3    H143217   7.003   4.744   0.578
 6588TIP3    H243218   7.142   4.685   0.574
 6589TIP3   OH243219   7.013   4.530   1.460
 6589TIP3    H143220   7.010   4.597   1.528
 6589TIP3    H243221   6.950   4.560   1.394
 6590TIP3   OH243222   6.217   4.766   0.699
 6590TIP3    H143223   6.195   4.731   0.612
 6590TIP3    H243224   6.272   4.698   0.739
 6591TIP3   OH243225   6.380   5.126   0.965
 6591TIP3    H143226   6.382   5.138   0.870
 6591TIP3    H243227   6.456   5.071   0.984
 6592TIP3   OH243228   6.208   4.672   1.057
 6592TIP3    H143229   6.264   4.649   0.983
 6592TIP3    H243230   6.253   4.745   1.099
 6593TIP3   OH243231   6.892   5.203   1.145
 6593TIP3    H143232   6.871   5.281   1.196
 6593TIP3    H243233   6.845   5.132   1.189
 6594TIP3   OH243234   6.361   5.096   1.544
 6594TIP3    H143235   6.304   5.157   1.589
 6594TIP3    H243236   6.314   5.073   1.464
 6595TIP3   OH243237   6.971   4.643   0.287
 6595TIP3    H143238   7.015   4.680   0.364
 6595TIP3    H243239   7.002   4.696   0.214
 6596TIP3   OH243240   6.027   4.651   1.492
 6596TIP3    H143241   6.046   4.721   1.554
 6596TIP3    H243242   5.935   4.664   1.468
 6597TIP3   OH243243   6.705   5.239   0.639
 6597TIP3    H143244   6.782   5.292   0.658
 6597TIP3    H243245   6.658   5.288   0.571
 6598TIP3   OH243246   6.176   5.279   1.625
 6598TIP3    H143247   6.174   5.317   1.537
 6598TIP3    H243248   6.084   5.256   1.643
 6599TIP3   OH243249   7.297   3.799   0.279
 6599TIP3    H143250   7.212   3.823   0.315
 6599TIP3    H243251   7.331   3.880   0.240
 6600TIP3   OH243252   6.131   4.682   0.441
 6600TIP3    H143253   6.076   4.754   0.411
 6600TIP3    H243254   6.075   4.604   0.433
 6601TIP3   OH243255   7.388   5.247   0.116
 6601TIP3    H143256   7.420   5.336   0.132
 6601TIP3    H243257   7.467   5.194   0.105
 6602TIP3   OH243258   5.741   4.927   1.373
 6602TIP3    H143259   5.688   4.937   1.294
 6602TIP3    H243260   5.754   4.833   1.381
 6603TIP3   OH243261   5.700   5.228   1.063
 6603TIP3    H143262   5.780   5.234   1.115
 6603TIP3    H243263   5.650   5.306   1.085
 6604TIP3   OH243264   7.504   5.305   1.635
 6604TIP3    H143265   7.521   5.211   1.631
 6604TIP3    H243266   7.414   5.312   1.666
 6605TIP3   OH243267   6.600   5.226   1.505
 6605TIP3    H143268   6.602   5.309   1.552
 6605TIP3    H243269   6.515   5.188   1.528
 6606TIP3   OH243270   6.681   5.585   0.456
 6606TIP3    H143271   6.667   5.616   0.367
 6606TIP3    H243272   6.655   5.659   0.512
 6607TIP3   OH243273   6.029   5.446   0.668
 6607TIP3    H143274   6.047   5.418   0.758
 6607TIP3    H243275   5.966   5.381   0.636
 6608TIP3   OH243276   6.980   5.523   0.146
 6608TIP3    H143277   7.048   5.458   0.126
 6608TIP3    H243278   6.973   5.522   0.241
 6609TIP3   OH243279   6.939   5.504   0.424
 6609TIP3    H143280   6.846   5.524   0.437
 6609TIP3    H243281   6.962   5.450   0.499
 6610TIP3   OH243282   7.197   4.401   1.656
 6610TIP3    H143283   7.124   4.443   1.610
 6610TIP3    H243284   7.184   4.307   1.641
 6611TIP3   OH243285   5.943   5.108   1.428
 6611TIP3    H143286   5.937   5.127   1.522
 6611TIP3    H243287   5.875   5.042   1.412
 6612TIP3   OH243288   6.212   3.919   1.038
 6612TIP3    H143289   6.132   3.876   1.007
 6612TIP3    H243290   6.185   3.966   1.117
 6613TIP3   OH243291   6.706   3.867   1.406
 6613TIP3    H143292   6.756   3.823   1.475
 6613TIP3    H243293   6.615   3.860   1.435
 6614TIP3   OH243294   7.002   4.253   1.496
 6614TIP3    H143295   6.933   4.237   1.560
 6614TIP3    H243296   6.992   4.345   1.472
 6615TIP3   OH243297   7.068   4.803   0.089
 6615TIP3    H143298   7.115   4.828   0.009
 6615TIP3    H243299   7.108   4.856   0.157
 6616TIP3   OH243300   6.678   4.131   0.136
 6616TIP3    H143301   6.609   4.117   0.201
 6616TIP3    H243302   6.639   4.103   0.053
 6617TIP3   OH243303   6.252   4.432   1.187
 6617TIP3    H143304   6.240   4.445   1.281
 6617TIP3    H243305   6.249   4.520   1.150
 6618TIP3   OH243306   6.223   4.391   0.672
 6618TIP3    H143307   6.128   4.386   0.665
 6618TIP3    H243308   6.254   4.383   0.582
 6619TIP3   OH243309   6.757   4.459   0.536
 6619TIP3    H143310   6.734   4.542   0.494
 6619TIP3    H243311   6.829   4.425   0.483
 6620TIP3   OH243312   6.654   4.465   1.647
 6620TIP3    H143313   6.614   4.391   1.692
 6620TIP3    H243314   6.735   4.481   1.696
 6621TIP3   OH243315   6.845   4.416   0.817
 6621TIP3    H143316   6.818   4.483   0.754
 6621TIP3    H243317   6.879   4.345   0.763
 6622TIP3   OH243318   5.989   4.410   1.345
 6622TIP3    H143319   6.003   4.479   1.410
 6622TIP3    H243320   5.965   4.333   1.397
 6623TIP3   OH243321   6.292   4.170   0.081
 6623TIP3    H143322   6.277   4.128   0.166
 6623TIP3    H243323   6.277   4.263   0.097
 6624TIP3   OH243324   5.716   4.134   0.709
 6624TIP3    H143325   5.705   4.228   0.696
 6624TIP3    H243326   5.721   4.098   0.621
 6625TIP3   OH243327   5.714   4.231   0.245
 6625TIP3    H143328   5.785   4.269   0.193
 6625TIP3    H243329   5.659   4.305   0.270
 6626TIP3   OH243330   6.814   4.564   1.262
 6626TIP3    H143331   6.854   4.501   1.201
 6626TIP3    H243332   6.747   4.514   1.308
 6627TIP3   OH243333   6.527   4.139   0.759
 6627TIP3    H143334   6.441   4.130   0.799
 6627TIP3    H243335   6.588   4.104   0.824
 6628TIP3   OH243336   5.959   4.318   0.644
 6628TIP3    H143337   5.878   4.344   0.600
 6628TIP3    H243338   5.974   4.228   0.616
 6629TIP3   OH243339   6.285   4.343   0.409
 6629TIP3    H143340   6.379   4.345   0.422
 6629TIP3    H243341   6.272   4.383   0.323
 6630TIP3   OH243342   6.917   4.096   1.096
 6630TIP3    H143343   6.878   4.100   1.183
 6630TIP3    H243344   6.853   4.049   1.043
 6631TIP3   OH243345   6.229   4.430   0.151
 6631TIP3    H143346   6.148   4.447   0.102
 6631TIP3    H243347   6.294   4.486   0.110
 6632TIP3   OH243348   7.256   5.633   1.727
 6632TIP3    H143349   7.305   5.711   1.753
 6632TIP3    H243350   7.277   5.569   1.795
 6633TIP3   OH243351   6.043   4.847   1.683
 6633TIP3    H143352   6.097   4.888   1.752
 6633TIP3    H243353   5.953   4.868   1.708
 6634TIP3   OH243354   6.588   4.452   0.946
 6634TIP3    H143355   6.667   4.417   0.907
 6634TIP3    H243356   6.567   4.391   1.017
 6635TIP3   OH243357   6.047   4.054   0.582
 6635TIP3    H143358   6.000   3.973   0.604
 6635TIP3    H243359   6.085   4.037   0.496
 6636TIP3   OH243360   6.497   4.305   1.169
 6636TIP3    H143361   6.419   4.360   1.180
 6636TIP3    H243362   6.554   4.330   1.241
 6637TIP3   OH243363   6.524   4.905   0.367
 6637TIP3    H143364   6.450   4.867   0.320
 6637TIP3    H243365   6.487   4.930   0.452
 6638TIP3   OH243366   7.216   4.847   1.210
 6638TIP3    H143367   7.279   4.903   1.165
 6638TIP3    H243368   7.142   4.840   1.149
 6639TIP3   OH243369   6.943   4.158   0.206
 6639TIP3    H143370   6.853   4.153   0.172
 6639TIP3    H243371   6.948   4.246   0.244
 6640TIP3   OH243372   6.647   4.927   1.496
 6640TIP3    H143373   6.676   4.894   1.581
 6640TIP3    H243374   6.621   5.018   1.514
 6641TIP3   OH243375   6.968   4.384   0.363
 6641TIP3    H143376   7.051   4.374   0.409
 6641TIP3    H243377   6.971   4.473   0.328
 6642TIP3   OH243378   6.036   4.833   0.895
 6642TIP3    H143379   6.096   4.826   0.820
 6642TIP3    H243380   6.078   4.780   0.964
 6643TIP3   OH243381   6.747   5.048   0.290
 6643TIP3    H143382   6.711   5.135   0.308
 6643TIP3    H243383   6.674   4.988   0.302
 6644TIP3   OH243384   5.752   4.649   1.437
 6644TIP3    H143385   5.716   4.607   1.515
 6644TIP3    H243386   5.681   4.643   1.373
 6645TIP3   OH243387   6.457   4.660   1.625
 6645TIP3    H143388   6.383   4.609   1.592
 6645TIP3    H243389   6.532   4.601   1.617
 6646TIP3   OH243390   6.875   5.189   1.493
 6646TIP3    H143391   6.781   5.201   1.480
 6646TIP3    H243392   6.892   5.220   1.581
 6647TIP3   OH243393   7.394   4.426   0.312
 6647TIP3    H143394   7.332   4.400   0.244
 6647TIP3    H243395   7.417   4.516   0.290
 6648TIP3   OH243396   7.482   5.025   1.596
 6648TIP3    H143397   7.390   5.031   1.568
 6648TIP3    H243398   7.529   4.994   1.518
 6649TIP3   OH243399   7.332   5.240   0.394
 6649TIP3    H143400   7.265   5.184   0.435
 6649TIP3    H243401   7.326   5.220   0.301
 6650TIP3   OH243402   7.021   4.795   1.015
 6650TIP3    H143403   6.926   4.787   1.016
 6650TIP3    H243404   7.051   4.711   0.979
 6651TIP3   OH243405   6.297   5.199   0.698
 6651TIP3    H143406   6.315   5.283   0.655
 6651TIP3    H243407   6.205   5.205   0.723
 6652TIP3   OH243408   5.859   4.688   0.153
 6652TIP3    H143409   5.895   4.748   0.219
 6652TIP3    H243410   5.765   4.689   0.169
 6653TIP3   OH243411   6.391   4.960   0.597
 6653TIP3    H143412   6.369   5.048   0.629
 6653TIP3    H243413   6.330   4.902   0.641
 6654TIP3   OH243414   6.490   5.381   1.292
 6654TIP3    H143415   6.545   5.457   1.274
 6654TIP3    H243416   6.541   5.328   1.354
 6655TIP3   OH243417   6.290   5.458   0.580
 6655TIP3    H143418   6.197   5.467   0.601
 6655TIP3    H243419   6.331   5.536   0.616
 6656TIP3   OH243420   6.779   4.965   1.258
 6656TIP3    H143421   6.729   4.953   1.339
 6656TIP3    H243422   6.863   4.924   1.275
 6657TIP3   OH243423   7.010   5.102   0.184
 6657TIP3    H143424   7.063   5.046   0.242
 6657TIP3    H243425   6.920   5.087   0.212
 6658TIP3   OH243426   7.077   5.404   1.464
 6658TIP3    H143427   6.993   5.362   1.443
 6658TIP3    H243428   7.081   5.479   1.405
 6659TIP3   OH243429   7.480   5.503   0.164
 6659TIP3    H143430   7.496   5.526   0.073
 6659TIP3    H243431   7.415   5.567   0.194
 6660TIP3   OH243432   5.961   4.123   1.456
 6660TIP3    H143433   5.893   4.160   1.512
 6660TIP3    H243434   6.032   4.100   1.516
 6661TIP3   OH243435   7.165   4.917   0.326
 6661TIP3    H143436   7.125   4.873   0.401
 6661TIP3    H243437   7.259   4.915   0.344
 6662TIP3   OH243438   5.887   5.330   1.261
 6662TIP3    H143439   5.915   5.253   1.310
 6662TIP3    H243440   5.887   5.401   1.326
 6663TIP3   OH243441   6.310   5.150   0.272
 6663TIP3    H143442   6.385   5.106   0.314
 6663TIP3    H243443   6.328   5.243   0.285
 6664TIP3   OH243444   5.965   4.873   0.329
 6664TIP3    H143445   5.894   4.920   0.373
 6664TIP3    H243446   6.010   4.941   0.278
 6665TIP3   OH243447   6.802   4.117   1.342
 6665TIP3    H143448   6.866   4.137   1.410
 6665TIP3    H243449   6.765   4.033   1.368
 6666TIP3   OH243450   6.868   4.062   0.469
 6666TIP3    H143451   6.885   4.103   0.384
 6666TIP3    H243452   6.901   4.125   0.533
 6667TIP3   OH243453   6.615   5.280   0.351
 6667TIP3    H143454   6.531   5.325   0.358
 6667TIP3    H243455   6.663   5.330   0.285
 6668TIP3   OH243456   6.538   4.294   0.524
 6668TIP3    H143457   6.613   4.353   0.529
 6668TIP3    H243458   6.535   4.252   0.610
 6669TIP3   OH243459   6.660   4.366   1.384
 6669TIP3    H143460   6.656   4.394   1.475
 6669TIP3    H243461   6.705   4.281   1.386
 6670TIP3   OH243462   6.626   3.960   0.567
 6670TIP3    H143463   6.599   4.024   0.634
 6670TIP3    H243464   6.713   3.989   0.540
 6671TIP3   OH243465   6.372   5.412   0.322
 6671TIP3    H143466   6.378   5.496   0.277
 6671TIP3    H243467   6.340   5.434   0.410
 6672TIP3   OH243468   6.213   4.082   0.341
 6672TIP3    H143469   6.218   4.173   0.372
 6672TIP3    H243470   6.303   4.050   0.348
 6673TIP3   OH243471   7.230   4.099   1.529
 6673TIP3    H143472   7.145   4.139   1.512
 6673TIP3    H243473   7.290   4.141   1.468
 6674TIP3   OH243474   7.093   4.540   0.917
 6674TIP3    H143475   7.006   4.503   0.906
 6674TIP3    H243476   7.138   4.478   0.975
 6675TIP3   OH243477   6.061   5.080   0.169
 6675TIP3    H143478   6.124   5.127   0.224
 6675TIP3    H243479   6.115   5.039   0.102
 6676TIP3   OH243480   5.872   4.414   0.096
 6676TIP3    H143481   5.873   4.507   0.115
 6676TIP3    H243482   5.857   4.409   0.001
 6677TIP3   OH243483   7.240   5.470   1.057
 6677TIP3    H143484   7.225   5.538   0.992
 6677TIP3    H243485   7.333   5.480   1.080
 6678TIP3   OH243486   5.957   3.863   0.953
 6678TIP3    H143487   5.937   3.841   0.862
 6678TIP3    H243488   5.914   3.794   1.003
 6679TIP3   OH243489   5.822   5.281   0.547
 6679TIP3    H143490   5.766   5.315   0.617
 6679TIP3    H243491   5.808   5.341   0.474
 6680TIP3   OH243492   5.772   5.558   1.731
 6680TIP3    H143493   5.833   5.536   1.801
 6680TIP3    H243494   5.729   5.476   1.709
 6681TIP3   OH243495   6.200   5.421   1.870
 6681TIP3    H143496   6.282   5.409   1.918
 6681TIP3    H243497   6.211   5.371   1.789
 6682TIP3   OH243498   6.734   5.398   0.136
 6682TIP3    H143499   6.700   5.357   0.056
 6682TIP3    H243500   6.824   5.422   0.115
 6683TIP3   OH243501   6.907   5.266   1.754
 6683TIP3    H143502   6.891   5.187   1.806
 6683TIP3    H243503   6.984   5.306   1.793
 6684TIP3   OH243504   7.123   5.308   0.048
 6684TIP3    H143505   7.083   5.240   0.101
 6684TIP3    H243506   7.217   5.293   0.058
 6685TIP3   OH243507   5.778   4.871   1.757
 6685TIP3    H143508   5.734   4.789   1.783
 6685TIP3    H243509   5.711   4.920   1.711
 6686TIP3   OH243510   6.238   4.927   0.024
 6686TIP3    H143511   6.273   4.891   0.106
 6686TIP3    H243512   6.269   4.866  -0.044
 6687TIP3   OH243513   6.405   4.911   1.744
 6687TIP3    H143514   6.398   4.974   1.672
 6687TIP3    H243515   6.429   4.829   1.701
 6688TIP3   OH243516   6.988   4.936   1.500
 6688TIP3    H143517   7.080   4.960   1.492
 6688TIP3    H243518   6.941   5.019   1.497
 6689TIP3   OH243519   5.836   4.560   1.817
 6689TIP3    H143520   5.918   4.569   1.768
 6689TIP3    H243521   5.848   4.614   1.895
 6690TIP3   OH243522   6.317   4.771   0.242
 6690TIP3    H143523   6.263   4.731   0.310
 6690TIP3    H243524   6.352   4.697   0.192
 6691TIP3   OH243525   6.270   4.524   1.448
 6691TIP3    H143526   6.194   4.579   1.466
 6691TIP3    H243527   6.332   4.584   1.406
 6692TIP3   OH243528   6.430   4.590   0.063
 6692TIP3    H143529   6.437   4.612  -0.030
 6692TIP3    H243530   6.521   4.578   0.091
 6693TIP3   OH243531   6.790   4.801   1.791
 6693TIP3    H143532   6.869   4.769   1.749
 6693TIP3    H243533   6.767   4.732   1.854
 6694TIP3   OH243534   7.382   4.846   8.491
 6694TIP3    H143535   7.366   4.857   8.397
 6694TIP3    H243536   7.394   4.935   8.524
 6695TIP3   OH243537   6.307   4.274   1.560
 6695TIP3    H143538   6.328   4.214   1.488
 6695TIP3    H243539   6.302   4.360   1.518
 6696TIP3   OH243540   6.340   4.120   1.321
 6696TIP3    H143541   6.405   4.163   1.266
 6696TIP3    H243542   6.258   4.127   1.271
 6697TIP3   OH243543   6.452   4.685   1.325
 6697TIP3    H143544   6.518   4.725   1.381
 6697TIP3    H243545   6.416   4.757   1.275
 6698TIP3   OH243546   6.928   4.397   1.898
 6698TIP3    H143547   6.925   4.326   1.962
 6698TIP3    H243548   7.021   4.412   1.882
 6699TIP3   OH243549   7.022   4.718   1.658
 6699TIP3    H143550   7.004   4.797   1.606
 6699TIP3    H243551   7.115   4.723   1.679
 6700TIP3   OH243552   6.155   4.342   1.782
 6700TIP3    H143553   6.080   4.283   1.783
 6700TIP3    H243554   6.205   4.317   1.704
 6701TIP3   OH243555   6.417   3.854   1.372
 6701TIP3    H143556   6.392   3.946   1.359
 6701TIP3    H243557   6.342   3.805   1.337
 6702TIP3   OH243558   6.527   4.227   1.731
 6702TIP3    H143559   6.504   4.154   1.788
 6702TIP3    H243560   6.448   4.245   1.681
 6703TIP3   OH243561   6.792   4.188   1.650
 6703TIP3    H143562   6.702   4.192   1.682
 6703TIP3    H243563   6.841   4.145   1.721
 6704TIP3   OH243564   6.936   4.069   1.849
 6704TIP3    H143565   6.929   3.974   1.862
 6704TIP3    H243566   6.928   4.106   1.936
 6705TIP3   OH243567   5.948   4.163   1.813
 6705TIP3    H143568   5.984   4.078   1.840
 6705TIP3    H243569   5.920   4.204   1.895
 6706TIP3   OH243570   6.457   3.816   1.640
 6706TIP3    H143571   6.499   3.730   1.648
 6706TIP3    H243572   6.432   3.821   1.548
 6707TIP3   OH243573   6.393   3.993   1.841
 6707TIP3    H143574   6.420   3.938   1.768
 6707TIP3    H243575   6.355   3.932   1.904
 6708TIP3   OH243576   6.414   5.633   0.162
 6708TIP3    H143577   6.503   5.662   0.185
 6708TIP3    H243578   6.407   5.649   0.068
 6709TIP3   OH243579   5.783   5.094   0.100
 6709TIP3    H143580   5.876   5.101   0.122
 6709TIP3    H243581   5.782   5.085   0.005
 6710TIP3   OH243582   5.675   5.601   0.661
 6710TIP3    H143583   5.616   5.568   0.593
 6710TIP3    H243584   5.692   5.525   0.717
 6711TIP3   OH243585   5.746   5.386   0.820
 6711TIP3    H143586   5.709   5.311   0.866
 6711TIP3    H243587   5.795   5.434   0.886
 6712TIP3   OH243588   7.505   5.509   1.137
 6712TIP3    H143589   7.497   5.477   1.227
 6712TIP3    H243590   7.518   5.603   1.147
 6713TIP3   OH243591   7.450   5.428   1.392
 6713TIP3    H143592   7.384   5.362   1.374
 6713TIP3    H243593   7.487   5.402   1.477
 6714TIP3   OH243594   7.324   5.118   1.906
 6714TIP3    H143595   7.242   5.105   1.954
 6714TIP3    H243596   7.299   5.169   1.829
 6715TIP3   OH243597   7.429   4.880   0.397
 6715TIP3    H143598   7.495   4.949   0.405
 6715TIP3    H243599   7.439   4.828   0.477
 6716TIP3   OH243600   7.455   4.702   0.606
 6716TIP3    H143601   7.373   4.667   0.642
 6716TIP3    H243602   7.513   4.707   0.682
 6717TIP3   OH243603   7.443   4.964   1.119
 6717TIP3    H143604   7.500   4.901   1.074
 6717TIP3    H243605   7.474   5.050   1.089
 6718TIP3   OH243606   7.257   5.239   1.330
 6718TIP3    H143607   7.189   5.290   1.374
 6718TIP3    H243608   7.224   5.226   1.241
 6719TIP3   OH243609   7.438   4.677   0.212
 6719TIP3    H143610   7.407   4.722   0.133
 6719TIP3    H243611   7.438   4.745   0.279
 6720TIP3   OH243612   7.245   4.373   0.086
 6720TIP3    H143613   7.316   4.399   0.027
 6720TIP3    H243614   7.220   4.286   0.056
 6721TIP3   OH243615   7.231   4.562   0.680
 6721TIP3    H143616   7.222   4.473   0.648
 6721TIP3    H243617   7.189   4.561   0.766
 6722TIP3   OH243618   5.733   4.753   1.072
 6722TIP3    H143619   5.741   4.749   0.977
 6722TIP3    H243620   5.815   4.716   1.105
 6723TIP3   OH243621   7.296   4.752   1.662
 6723TIP3    H143622   7.362   4.683   1.658
 6723TIP3    H243623   7.330   4.822   1.607
 6724TIP3   OH243624   7.443   4.517   1.628
 6724TIP3    H143625   7.354   4.485   1.641
 6724TIP3    H243626   7.499   4.444   1.657
 6725TIP3   OH243627   7.162   4.114   0.035
 6725TIP3    H143628   7.227   4.074   0.092
 6725TIP3    H243629   7.083   4.120   0.089
 6726TIP3   OH243630   7.207   4.325   0.505
 6726TIP3    H143631   7.226   4.231   0.505
 6726TIP3    H243632   7.275   4.364   0.450
 6727TIP3   OH243633   7.231   4.346   1.060
 6727TIP3    H143634   7.326   4.356   1.049
 6727TIP3    H243635   7.216   4.359   1.153
 6728TIP3   OH243636   7.241   4.435   1.325
 6728TIP3    H143637   7.165   4.468   1.373
 6728TIP3    H243638   7.287   4.513   1.297
 6729TIP3   OH243639   5.754   4.168   1.619
 6729TIP3    H143640   5.812   4.178   1.694
 6729TIP3    H243641   5.671   4.137   1.657
 6730TIP3   OH243642   7.485   3.799   1.865
 6730TIP3    H143643   7.477   3.887   1.827
 6730TIP3    H243644   7.454   3.809   1.955
 6731TIP3   OH243645   7.247   4.051   0.509
 6731TIP3    H143646   7.266   4.020   0.597
 6731TIP3    H243647   7.182   3.989   0.475
 6732TIP3   OH243648   5.807   4.160   1.025
 6732TIP3    H143649   5.728   4.106   1.024
 6732TIP3    H243650   5.776   4.248   1.044
 6733TIP3   OH243651   5.692   4.416   1.062
 6733TIP3    H143652   5.751   4.447   0.992
 6733TIP3    H243653   5.708   4.475   1.135
 6734TIP3   OH243654   7.403   4.038   1.742
 6734TIP3    H143655   7.348   4.059   1.818
 6734TIP3    H243656   7.343   4.044   1.667
 6735TIP3   OH243657   7.405   4.016   0.139
 6735TIP3    H143658   7.426   4.004   0.046
 6735TIP3    H243659   7.468   4.081   0.169
 6736TIP3   OH243660   5.679   4.048   0.448
 6736TIP3    H143661   5.583   4.044   0.453
 6736TIP3    H243662   5.697   4.112   0.379
 6737TIP3   OH243663   7.146   5.537   0.681
 6737TIP3    H143664   7.220   5.536   0.622
 6737TIP3    H243665   7.174   5.592   0.754
 6738TIP3   OH243666   5.647   3.914   1.285
 6738TIP3    H143667   5.573   3.861   1.314
 6738TIP3    H243668   5.611   3.967   1.213
 6739TIP3   OH243669   5.916   5.198   1.692
 6739TIP3    H143670   5.831   5.242   1.703
 6739TIP3    H243671   5.948   5.186   1.782
 6740TIP3   OH243672   6.224   5.357   1.357
 6740TIP3    H143673   6.193   5.443   1.331
 6740TIP3    H243674   6.319   5.360   1.345
 6741TIP3   OH243675   6.614   5.481   1.615
 6741TIP3    H143676   6.624   5.458   1.708
 6741TIP3    H243677   6.694   5.529   1.594
 6742TIP3   OH243678   6.859   5.610   1.593
 6742TIP3    H143679   6.932   5.555   1.566
 6742TIP3    H243680   6.882   5.641   1.680
 6743TIP3   OH243681   7.327   3.837   1.458
 6743TIP3    H143682   7.276   3.910   1.492
 6743TIP3    H243683   7.314   3.766   1.521
 6744TIP3   OH243684   5.925   5.663   1.352
 6744TIP3    H143685   5.842   5.693   1.316
 6744TIP3    H243686   5.926   5.696   1.442
 6745TIP3   OH243687   6.185   5.619   1.280
 6745TIP3    H143688   6.094   5.635   1.306
 6745TIP3    H243689   6.194   5.663   1.196
 6746TIP3   OH243690   6.636   5.597   1.190
 6746TIP3    H143691   6.581   5.639   1.123
 6746TIP3    H243692   6.651   5.666   1.254
 6747TIP3   OH243693   6.858   5.450   1.261
 6747TIP3    H143694   6.780   5.500   1.237
 6747TIP3    H243695   6.930   5.513   1.257
 6748TIP3   OH243696   7.097   5.594   1.259
 6748TIP3    H143697   7.123   5.685   1.246
 6748TIP3    H243698   7.145   5.545   1.193
 6749TIP3   OH243699   5.899   5.495   1.033
 6749TIP3    H143700   5.889   5.448   1.116
 6749TIP3    H243701   5.979   5.460   0.995
 6750TIP3   OH243702   6.115   5.374   0.921
 6750TIP3    H143703   6.100   5.282   0.942
 6750TIP3    H243704   6.200   5.395   0.960
 6751TIP3   OH243705   6.369   5.398   1.041
 6751TIP3    H143706   6.380   5.307   1.013
 6751TIP3    H243707   6.402   5.399   1.131
 6752TIP3   OH243708   6.680   3.984   0.927
 6752TIP3    H143709   6.620   3.913   0.949
 6752TIP3    H243710   6.758   3.940   0.892
 6753TIP3   OH243711   7.199   3.805   0.906
 6753TIP3    H143712   7.251   3.872   0.863
 6753TIP3    H243713   7.142   3.852   0.966
 6754TIP3   OH243714   7.355   3.959   0.744
 6754TIP3    H143715   7.415   3.888   0.721
 6754TIP3    H243716   7.412   4.033   0.764
 6755TIP3   OH243717   5.921   3.825   0.679
 6755TIP3    H143718   5.830   3.807   0.655
 6755TIP3    H243719   5.966   3.741   0.671
 6756TIP3   OH243720   5.788   3.834   0.298
 6756TIP3    H143721   5.839   3.886   0.236
 6756TIP3    H243722   5.751   3.899   0.358
 6757TIP3   OH243723   6.406   3.798   0.689
 6757TIP3    H143724   6.480   3.842   0.646
 6757TIP3    H243725   6.430   3.795   0.781
 6758TIP3   OH243726   6.906   3.862   0.842
 6758TIP3    H143727   6.975   3.855   0.776
 6758TIP3    H243728   6.884   3.772   0.864
 6759TIP3   OH243729   7.061   3.865   0.415
 6759TIP3    H143730   6.987   3.924   0.428
 6759TIP3    H243731   7.025   3.778   0.429
 6760TIP3   OH243732   5.788   5.446   0.328
 6760TIP3    H143733   5.716   5.445   0.266
 6760TIP3    H243734   5.805   5.539   0.344
 6761TIP3   OH243735   5.971   3.939   0.110
 6761TIP3    H143736   6.006   3.850   0.119
 6761TIP3    H243737   6.037   3.995   0.150
 6762TIP3   OH243738   6.495   4.084   0.351
 6762TIP3    H143739   6.535   4.015   0.405
 6762TIP3    H243740   6.510   4.164   0.401
 6763TIP3   OH243741   6.687   5.662   0.192
 6763TIP3    H143742   6.765   5.707   0.160
 6763TIP3    H243743   6.699   5.571   0.168
 6764TIP3   OH243744   7.342   5.501   0.483
 6764TIP3    H143745   7.341   5.410   0.453
 6764TIP3    H243746   7.325   5.553   0.405
 6765TIP3   OH243747   5.896   3.871   1.646
 6765TIP3    H143748   5.874   3.781   1.672
 6765TIP3    H243749   5.954   3.902   1.715
 6766TIP3   OH243750   6.027   5.527   0.098
 6766TIP3    H143751   5.951   5.586   0.110
 6766TIP3    H243752   6.011   5.455   0.159
 6767TIP3   OH243753   6.942   3.791   1.862
 6767TIP3    H143754   6.917   3.768   1.952
 6767TIP3    H243755   7.033   3.763   1.855
 6768TIP3   OH243756   7.232   5.296   1.699
 6768TIP3    H143757   7.179   5.343   1.635
 6768TIP3    H243758   7.246   5.360   1.769
 6769TIP3   OH243759   7.557   4.451   0.540
 6769TIP3    H143760   7.523   4.536   0.568
 6769TIP3    H243761   7.502   4.427   0.466
 6770TIP3   OH243762   7.644   4.656   0.799
 6770TIP3    H143763   7.661   4.565   0.825
 6770TIP3    H243764   7.731   4.692   0.780
 6771TIP3   OH243765   7.613   5.089   0.375
 6771TIP3    H143766   7.611   5.092   0.279
 6771TIP3    H243767   7.575   5.172   0.402
 6772TIP3   OH243768   7.567   4.907   1.365
 6772TIP3    H143769   7.518   4.924   1.284
 6772TIP3    H243770   7.565   4.812   1.375
 6773TIP3   OH243771   7.568   5.202   1.055
 6773TIP3    H143772   7.663   5.202   1.049
 6773TIP3    H243773   7.548   5.267   1.122
 6774TIP3   OH243774   7.546   4.154   0.733
 6774TIP3    H143775   7.597   4.234   0.745
 6774TIP3    H243776   7.541   4.142   0.639
 6775TIP3   OH243777   7.576   4.216   0.241
 6775TIP3    H143778   7.668   4.237   0.261
 6775TIP3    H243779   7.530   4.299   0.253
 6776TIP3   OH243780   7.577   4.634   1.424
 6776TIP3    H143781   7.540   4.597   1.504
 6776TIP3    H243782   7.514   4.612   1.356
 6777TIP3   OH243783   7.629   5.542   1.723
 6777TIP3    H143784   7.723   5.524   1.728
 6777TIP3    H243785   7.589   5.459   1.697
 6778TIP3   OH243786   7.612   4.858   1.774
 6778TIP3    H143787   7.540   4.832   1.832
 6778TIP3    H243788   7.571   4.919   1.712
 6779TIP3   OH243789   7.615   5.086   0.088
 6779TIP3    H143790   7.709   5.081   0.100
 6779TIP3    H243791   7.602   5.074  -0.006
 6780TIP3   OH243792   7.498   5.601   0.680
 6780TIP3    H143793   7.445   5.559   0.612
 6780TIP3    H243794   7.509   5.534   0.747
 6781TIP3   OH243795   7.546   5.418   0.879
 6781TIP3    H143796   7.533   5.326   0.898
 6781TIP3    H243797   7.535   5.462   0.964
 6782TIP3   OH243798   7.589   4.738   1.055
 6782TIP3    H143799   7.589   4.715   0.962
 6782TIP3    H243800   7.681   4.754   1.076
 6783TIP3   OH243801   7.541   4.256   1.634
 6783TIP3    H143802   7.634   4.238   1.644
 6783TIP3    H243803   7.498   4.189   1.688
 6784TIP3   OH243804   7.503   4.396   1.073
 6784TIP3    H143805   7.598   4.397   1.074
 6784TIP3    H243806   7.478   4.476   1.120
 6785TIP3   OH243807   7.523   4.074   0.469
 6785TIP3    H143808   7.429   4.055   0.475
 6785TIP3    H243809   7.533   4.120   0.385
 6786TIP3   OH243810   7.506   3.879   1.253
 6786TIP3    H143811   7.447   3.863   1.327
 6786TIP3    H243812   7.471   3.957   1.211
 6787TIP3   OH243813   7.660   5.419   0.371
 6787TIP3    H143814   7.594   5.448   0.307
 6787TIP3    H243815   7.664   5.490   0.435
 6788TIP3   OH243816   1.159   6.675   0.670
 6788TIP3    H143817   1.152   6.767   0.642
 6788TIP3    H243818   1.088   6.664   0.733
 6789TIP3   OH243819   1.064   6.566   1.042
 6789TIP3    H143820   1.085   6.540   1.132
 6789TIP3    H243821   1.001   6.501   1.012
 6790TIP3   OH243822   0.344   6.542   1.191
 6790TIP3    H143823   0.315   6.457   1.223
 6790TIP3    H243824   0.369   6.591   1.269
 6791TIP3   OH243825   1.439   6.856   0.866
 6791TIP3    H143826   1.404   6.788   0.924
 6791TIP3    H243827   1.454   6.931   0.924
 6792TIP3   OH243828   0.383   6.981   1.002
 6792TIP3    H143829   0.373   6.891   0.970
 6792TIP3    H243830   0.429   6.972   1.085
 6793TIP3   OH243831   0.133   6.345   0.548
 6793TIP3    H143832   0.155   6.425   0.596
 6793TIP3    H243833   0.038   6.336   0.557
 6794TIP3   OH243834   0.229   6.545   0.726
 6794TIP3    H143835   0.233   6.476   0.791
 6794TIP3    H243836   0.275   6.619   0.766
 6795TIP3   OH243837   1.150   7.328   0.858
 6795TIP3    H143838   1.228   7.273   0.850
 6795TIP3    H243839   1.125   7.321   0.950
 6796TIP3   OH243840   0.932   6.817   1.055
 6796TIP3    H143841   0.969   6.731   1.036
 6796TIP3    H243842   0.990   6.854   1.121
 6797TIP3   OH243843   1.802   5.967   1.141
 6797TIP3    H143844   1.810   6.030   1.213
 6797TIP3    H243845   1.874   5.989   1.082
 6798TIP3   OH243846   1.263   6.260   1.083
 6798TIP3    H143847   1.276   6.172   1.118
 6798TIP3    H243848   1.207   6.247   1.006
 6799TIP3   OH243849   0.538   6.013   0.789
 6799TIP3    H143850   0.562   6.097   0.751
 6799TIP3    H243851   0.549   5.950   0.718
 6800TIP3   OH243852   1.333   6.107   0.693
 6800TIP3    H143853   1.381   6.072   0.769
 6800TIP3    H243854   1.401   6.143   0.636
 6801TIP3   OH243855   0.216   6.316   0.874
 6801TIP3    H143856   0.291   6.273   0.916
 6801TIP3    H243857   0.182   6.250   0.813
 6802TIP3   OH243858   0.727   6.456   0.783
 6802TIP3    H143859   0.790   6.416   0.844
 6802TIP3    H243860   0.669   6.384   0.759
 6803TIP3   OH243861   1.825   6.119   1.368
 6803TIP3    H143862   1.753   6.181   1.367
 6803TIP3    H243863   1.814   6.070   1.450
 6804TIP3   OH243864   0.420   5.992   1.223
 6804TIP3    H143865   0.388   6.066   1.171
 6804TIP3    H243866   0.362   5.988   1.299
 6805TIP3   OH243867   1.162   6.929   0.566
 6805TIP3    H143868   1.140   6.932   0.473
 6805TIP3    H243869   1.123   7.009   0.602
 6806TIP3   OH243870   0.699   6.736   1.188
 6806TIP3    H143871   0.634   6.803   1.210
 6806TIP3    H243872   0.771   6.785   1.147
 6807TIP3   OH243873   1.520   6.054   0.890
 6807TIP3    H143874   1.458   6.023   0.956
 6807TIP3    H243875   1.582   6.109   0.938
 6808TIP3   OH243876   0.417   6.161   0.985
 6808TIP3    H143877   0.455   6.217   1.053
 6808TIP3    H243878   0.492   6.123   0.939
 6809TIP3   OH243879   0.519   6.935   1.240
 6809TIP3    H143880   0.547   7.024   1.257
 6809TIP3    H243881   0.452   6.918   1.306
 6810TIP3   OH243882   0.173   6.902   0.445
 6810TIP3    H143883   0.079   6.912   0.428
 6810TIP3    H243884   0.197   6.983   0.490
 6811TIP3   OH243885   1.494   7.096   1.073
 6811TIP3    H143886   1.401   7.087   1.092
 6811TIP3    H243887   1.506   7.190   1.058
 6812TIP3   OH243888   1.549   5.862   1.220
 6812TIP3    H143889   1.480   5.914   1.179
 6812TIP3    H243890   1.630   5.899   1.186
 6813TIP3   OH243891   0.783   5.673   0.969
 6813TIP3    H143892   0.762   5.582   0.986
 6813TIP3    H243893   0.710   5.722   1.008
 6814TIP3   OH243894   1.375   7.197   0.763
 6814TIP3    H143895   1.403   7.122   0.711
 6814TIP3    H243896   1.413   7.273   0.718
 6815TIP3   OH243897   1.429   6.955   0.612
 6815TIP3    H143898   1.335   6.950   0.598
 6815TIP3    H243899   1.443   6.920   0.700
 6816TIP3   OH243900   1.635   6.882   1.464
 6816TIP3    H143901   1.589   6.821   1.407
 6816TIP3    H243902   1.630   6.966   1.419
 6817TIP3   OH243903   1.058   6.566   0.391
 6817TIP3    H143904   0.990   6.633   0.401
 6817TIP3    H243905   1.140   6.613   0.405
 6818TIP3   OH243906   1.026   6.473   0.133
 6818TIP3    H143907   1.034   6.500   0.224
 6818TIP3    H243908   1.116   6.463   0.103
 6819TIP3   OH243909   1.772   6.555   1.295
 6819TIP3    H143910   1.697   6.613   1.284
 6819TIP3    H243911   1.824   6.566   1.215
 6820TIP3   OH243912   1.422   6.636   0.620
 6820TIP3    H143913   1.331   6.656   0.645
 6820TIP3    H243914   1.475   6.677   0.688
 6821TIP3   OH243915   1.385   6.405   1.453
 6821TIP3    H143916   1.399   6.473   1.519
 6821TIP3    H243917   1.315   6.439   1.397
 6822TIP3   OH243918   0.547   6.650   0.707
 6822TIP3    H143919   0.514   6.622   0.622
 6822TIP3    H243920   0.611   6.583   0.731
 6823TIP3   OH243921   0.754   7.013   0.957
 6823TIP3    H143922   0.735   6.998   0.865
 6823TIP3    H243923   0.815   6.944   0.981
 6824TIP3   OH243924   0.608   6.529   1.032
 6824TIP3    H143925   0.663   6.542   0.955
 6824TIP3    H243926   0.633   6.599   1.092
 6825TIP3   OH243927   1.235   7.082   1.147
 6825TIP3    H143928   1.211   7.157   1.202
 6825TIP3    H243929   1.187   7.008   1.185
 6826TIP3   OH243930   0.685   6.972   1.544
 6826TIP3    H143931   0.632   7.036   1.589
 6826TIP3    H243932   0.624   6.928   1.484
 6827TIP3   OH243933   1.349   6.602   0.343
 6827TIP3    H143934   1.386   6.680   0.384
 6827TIP3    H243935   1.357   6.617   0.249
 6828TIP3   OH243936   0.407   6.600   1.464
 6828TIP3    H143937   0.427   6.667   1.530
 6828TIP3    H243938   0.314   6.580   1.478
 6829TIP3   OH243939   1.062   7.172   0.640
 6829TIP3    H143940   1.082   7.224   0.718
 6829TIP3    H243941   0.990   7.219   0.598
 6830TIP3   OH243942   0.513   7.150   1.654
 6830TIP3    H143943   0.461   7.204   1.595
 6830TIP3    H243944   0.449   7.109   1.712
 6831TIP3   OH243945   1.681   5.701   0.297
 6831TIP3    H143946   1.590   5.711   0.325
 6831TIP3    H243947   1.711   5.791   0.281
 6832TIP3   OH243948   0.466   6.561   0.444
 6832TIP3    H143949   0.418   6.629   0.397
 6832TIP3    H243950   0.398   6.498   0.469
 6833TIP3   OH243951   1.758   7.104   0.115
 6833TIP3    H143952   1.784   7.196   0.127
 6833TIP3    H243953   1.840   7.057   0.102
 6834TIP3   OH243954   0.133   6.762   1.332
 6834TIP3    H143955   0.040   6.785   1.333
 6834TIP3    H243956   0.139   6.684   1.388
 6835TIP3   OH243957   0.101   7.101   1.007
 6835TIP3    H143958   0.176   7.048   0.979
 6835TIP3    H243959   0.126   7.135   1.093
 6836TIP3   OH243960   1.826   7.208   1.678
 6836TIP3    H143961   1.826   7.113   1.670
 6836TIP3    H243962   1.808   7.239   1.590
 6837TIP3   OH243963   0.928   7.090   1.480
 6837TIP3    H143964   0.944   7.156   1.548
 6837TIP3    H243965   0.842   7.054   1.501
 6838TIP3   OH243966   1.048   7.486   0.500
 6838TIP3    H143967   1.037   7.501   0.406
 6838TIP3    H243968   0.965   7.514   0.539
 6839TIP3   OH243969   0.393   7.325   0.671
 6839TIP3    H143970   0.407   7.299   0.762
 6839TIP3    H243971   0.325   7.265   0.639
 6840TIP3   OH243972   1.373   7.412   0.192
 6840TIP3    H143973   1.414   7.339   0.145
 6840TIP3    H243974   1.326   7.371   0.264
 6841TIP3   OH243975   1.269   7.328   0.428
 6841TIP3    H143976   1.184   7.360   0.458
 6841TIP3    H243977   1.314   7.303   0.509
 6842TIP3   OH243978   1.607   6.293   1.647
 6842TIP3    H143979   1.521   6.334   1.636
 6842TIP3    H243980   1.596   6.205   1.610
 6843TIP3   OH243981   0.336   6.920   1.434
 6843TIP3    H143982   0.347   6.910   1.529
 6843TIP3    H243983   0.258   6.870   1.413
 6844TIP3   OH243984   0.552   5.802   1.065
 6844TIP3    H143985   0.478   5.781   1.008
 6844TIP3    H243986   0.518   5.868   1.125
 6845TIP3   OH243987   1.054   5.770   1.389
 6845TIP3    H143988   1.115   5.734   1.455
 6845TIP3    H243989   0.967   5.753   1.425
 6846TIP3   OH243990   1.305   6.139   1.484
 6846TIP3    H143991   1.244   6.123   1.556
 6846TIP3    H243992   1.319   6.233   1.485
 6847TIP3   OH243993   1.406   6.688   0.089
 6847TIP3    H143994   1.383   6.780   0.097
 6847TIP3    H243995   1.500   6.688   0.068
 6848TIP3   OH243996   0.988   6.015   0.148
 6848TIP3    H143997   0.950   5.994   0.233
 6848TIP3    H243998   0.913   6.028   0.090
 6849TIP3   OH243999   0.576   6.292   1.160
 6849TIP3    H144000   0.557   6.315   1.251
 6849TIP3    H244001   0.583   6.377   1.116
 6850TIP3   OH244002   0.560   6.263   0.676
 6850TIP3    H144003   0.465   6.249   0.674
 6850TIP3    H244004   0.587   6.255   0.585
 6851TIP3   OH244005   1.186   6.350   0.511
 6851TIP3    H144006   1.129   6.418   0.477
 6851TIP3    H244007   1.134   6.269   0.504
 6852TIP3   OH244008   0.986   6.365   1.673
 6852TIP3    H144009   0.940   6.285   1.699
 6852TIP3    H244010   1.028   6.396   1.753
 6853TIP3   OH244011   1.150   6.268   0.828
 6853TIP3    H144012   1.170   6.351   0.787
 6853TIP3    H244013   1.200   6.203   0.778
 6854TIP3   OH244014   0.290   6.278   1.319
 6854TIP3    H144015   0.331   6.328   1.390
 6854TIP3    H244016   0.270   6.193   1.359
 6855TIP3   OH244017   0.708   6.048   0.073
 6855TIP3    H144018   0.672   6.002   0.149
 6855TIP3    H244019   0.681   6.139   0.085
 6856TIP3   OH244020   0.094   6.008   0.780
 6856TIP3    H144021   0.068   5.996   0.872
 6856TIP3    H244022   0.011   6.016   0.733
 6857TIP3   OH244023   0.132   6.172   0.325
 6857TIP3    H144024   0.199   6.204   0.264
 6857TIP3    H244025   0.129   6.237   0.394
 6858TIP3   OH244026   1.169   6.442   1.271
 6858TIP3    H144027   1.206   6.376   1.212
 6858TIP3    H244028   1.104   6.394   1.322
 6859TIP3   OH244029   0.855   6.045   0.773
 6859TIP3    H144030   0.794   6.064   0.844
 6859TIP3    H244031   0.912   5.976   0.808
 6860TIP3   OH244032   0.311   6.153   0.630
 6860TIP3    H144033   0.249   6.221   0.602
 6860TIP3    H244034   0.294   6.080   0.570
 6861TIP3   OH244035   0.630   6.218   0.416
 6861TIP3    H144036   0.724   6.226   0.431
 6861TIP3    H244037   0.616   6.254   0.329
 6862TIP3   OH244038   1.331   5.965   1.062
 6862TIP3    H144039   1.274   5.965   1.138
 6862TIP3    H244040   1.296   5.897   1.005
 6863TIP3   OH244041   0.582   6.282   0.155
 6863TIP3    H144042   0.488   6.291   0.141
 6863TIP3    H244043   0.621   6.353   0.105
 6864TIP3   OH244044   1.618   7.580   1.735
 6864TIP3    H144045   1.620   7.585   1.639
 6864TIP3    H244046   1.634   7.670   1.763
 6865TIP3   OH244047   0.423   6.781   1.673
 6865TIP3    H144048   0.487   6.804   1.741
 6865TIP3    H244049   0.341   6.770   1.721
 6866TIP3   OH244050   0.911   6.339   0.951
 6866TIP3    H144051   0.988   6.296   0.914
 6866TIP3    H244052   0.891   6.289   1.030
 6867TIP3   OH244053   0.524   5.860   0.564
 6867TIP3    H144054   0.443   5.812   0.579
 6867TIP3    H244055   0.524   5.878   0.470
 6868TIP3   OH244056   0.845   6.207   1.187
 6868TIP3    H144057   0.763   6.255   1.195
 6868TIP3    H244058   0.895   6.233   1.264
 6869TIP3   OH244059   0.877   6.780   0.379
 6869TIP3    H144060   0.806   6.741   0.328
 6869TIP3    H244061   0.837   6.802   0.463
 6870TIP3   OH244062   1.572   6.733   1.230
 6870TIP3    H144063   1.629   6.788   1.177
 6870TIP3    H244064   1.495   6.719   1.175
 6871TIP3   OH244065   1.251   6.098   0.184
 6871TIP3    H144066   1.163   6.062   0.176
 6871TIP3    H244067   1.265   6.146   0.103
 6872TIP3   OH244068   1.046   6.845   1.514
 6872TIP3    H144069   0.992   6.803   1.581
 6872TIP3    H244070   1.006   6.930   1.501
 6873TIP3   OH244071   1.420   6.289   0.302
 6873TIP3    H144072   1.349   6.231   0.276
 6873TIP3    H244073   1.471   6.303   0.222
 6874TIP3   OH244074   0.376   6.702   0.933
 6874TIP3    H144075   0.447   6.692   0.871
 6874TIP3    H244076   0.400   6.645   1.006
 6875TIP3   OH244077   1.106   6.915   0.290
 6875TIP3    H144078   1.070   7.004   0.291
 6875TIP3    H244079   1.031   6.859   0.309
 6876TIP3   OH244080   0.142   6.532   1.485
 6876TIP3    H144081   0.156   6.499   1.574
 6876TIP3    H244082   0.048   6.522   1.471
 6877TIP3   OH244083   0.775   6.524   1.601
 6877TIP3    H144084   0.712   6.501   1.670
 6877TIP3    H244085   0.854   6.476   1.624
 6878TIP3   OH244086   1.239   7.097   1.516
 6878TIP3    H144087   1.146   7.096   1.492
 6878TIP3    H244088   1.239   7.099   1.611
 6879TIP3   OH244089   1.763   6.328   0.310
 6879TIP3    H144090   1.692   6.302   0.250
 6879TIP3    H244091   1.781   6.419   0.287
 6880TIP3   OH244092   1.870   6.938   1.596
 6880TIP3    H144093   1.777   6.918   1.584
 6880TIP3    H244094   1.912   6.901   1.518
 6881TIP3   OH244095   1.641   7.125   0.369
 6881TIP3    H144096   1.586   7.052   0.398
 6881TIP3    H244097   1.673   7.099   0.282
 6882TIP3   OH244098   1.355   6.648   1.034
 6882TIP3    H144099   1.261   6.631   1.040
 6882TIP3    H244100   1.393   6.564   1.007
 6883TIP3   OH244101   0.636   7.071   0.699
 6883TIP3    H144102   0.650   7.151   0.647
 6883TIP3    H244103   0.561   7.092   0.755
 6884TIP3   OH244104   0.193   6.524   0.179
 6884TIP3    H144105   0.247   6.598   0.207
 6884TIP3    H244106   0.103   6.553   0.195
 6885TIP3   OH244107   0.732   6.833   0.604
 6885TIP3    H144108   0.704   6.921   0.631
 6885TIP3    H244109   0.669   6.774   0.644
 6886TIP3   OH244110   0.836   7.272   1.282
 6886TIP3    H144111   0.847   7.356   1.326
 6886TIP3    H244112   0.879   7.209   1.340
 6887TIP3   OH244113   0.641   7.316   0.557
 6887TIP3    H144114   0.548   7.319   0.579
 6887TIP3    H244115   0.679   7.390   0.606
 6888TIP3   OH244116   1.127   6.846   1.253
 6888TIP3    H144117   1.089   6.844   1.341
 6888TIP3    H244118   1.198   6.781   1.256
 6889TIP3   OH244119   1.368   6.954   0.164
 6889TIP3    H144120   1.419   6.925   0.240
 6889TIP3    H244121   1.277   6.955   0.195
 6890TIP3   OH244122   1.437   7.272   1.455
 6890TIP3    H144123   1.361   7.215   1.458
 6890TIP3    H244124   1.410   7.346   1.400
 6891TIP3   OH244125   1.838   7.376   0.165
 6891TIP3    H144126   1.838   7.377   0.070
 6891TIP3    H244127   1.763   7.429   0.191
 6892TIP3   OH244128   0.237   6.024   1.437
 6892TIP3    H144129   0.184   6.076   1.497
 6892TIP3    H244130   0.246   5.939   1.481
 6893TIP3   OH244131   1.515   6.846   0.376
 6893TIP3    H144132   1.486   6.875   0.463
 6893TIP3    H244133   1.602   6.809   0.392
 6894TIP3   OH244134   0.209   7.173   1.250
 6894TIP3    H144135   0.248   7.091   1.282
 6894TIP3    H244136   0.216   7.233   1.324
 6895TIP3   OH244137   0.690   7.029   0.267
 6895TIP3    H144138   0.757   6.982   0.317
 6895TIP3    H244139   0.711   7.121   0.279
 6896TIP3   OH244140   0.327   6.743   0.291
 6896TIP3    H144141   0.270   6.789   0.352
 6896TIP3    H244142   0.373   6.813   0.243
 6897TIP3   OH244143   1.190   5.986   1.286
 6897TIP3    H144144   1.229   6.033   1.360
 6897TIP3    H244145   1.139   5.916   1.327
 6898TIP3   OH244146   1.191   6.009   0.474
 6898TIP3    H144147   1.241   6.022   0.393
 6898TIP3    H244148   1.249   6.041   0.543
 6899TIP3   OH244149   0.991   7.158   0.298
 6899TIP3    H144150   0.910   7.208   0.307
 6899TIP3    H244151   1.044   7.209   0.236
 6900TIP3   OH244152   0.884   6.203   0.550
 6900TIP3    H144153   0.889   6.290   0.589
 6900TIP3    H244154   0.875   6.143   0.624
 6901TIP3   OH244155   1.011   6.262   1.416
 6901TIP3    H144156   0.996   6.312   1.497
 6901TIP3    H244157   1.038   6.175   1.445
 6902TIP3   OH244158   1.008   5.837   0.574
 6902TIP3    H144159   1.010   5.838   0.669
 6902TIP3    H244160   1.075   5.901   0.548
 6903TIP3   OH244161   0.752   7.293   0.309
 6903TIP3    H144162   0.748   7.379   0.268
 6903TIP3    H244163   0.707   7.305   0.394
 6904TIP3   OH244164   0.596   5.961   0.311
 6904TIP3    H144165   0.575   6.047   0.346
 6904TIP3    H244166   0.686   5.944   0.339
 6905TIP3   OH244167   1.561   6.053   1.515
 6905TIP3    H144168   1.468   6.073   1.507
 6905TIP3    H244169   1.573   5.973   1.463
 6906TIP3   OH244170   1.458   6.392   0.936
 6906TIP3    H144171   1.383   6.353   0.982
 6906TIP3    H244172   1.535   6.351   0.975
 6907TIP3   OH244173   0.433   6.974   0.166
 6907TIP3    H144174   0.488   7.019   0.230
 6907TIP3    H244175   0.495   6.928   0.110
 6908TIP3   OH244176   0.306   6.279   0.127
 6908TIP3    H144177   0.265   6.366   0.134
 6908TIP3    H244178   0.260   6.237   0.055
 6909TIP3   OH244179   1.556   7.374   1.082
 6909TIP3    H144180   1.536   7.423   1.003
 6909TIP3    H244181   1.651   7.380   1.092
 6910TIP3   OH244182   0.323   5.751   0.920
 6910TIP3    H144183   0.304   5.716   0.833
 6910TIP3    H244184   0.295   5.683   0.980
 6911TIP3   OH244185   0.203   7.165   0.542
 6911TIP3    H144186   0.122   7.199   0.579
 6911TIP3    H244187   0.211   7.208   0.457
 6912TIP3   OH244188   0.143   7.393   1.760
 6912TIP3    H144189   0.194   7.376   1.839
 6912TIP3    H244190   0.196   7.354   1.689
 6913TIP3   OH244191   0.639   7.342   1.805
 6913TIP3    H144192   0.640   7.304   1.893
 6913TIP3    H244193   0.595   7.276   1.751
 6914TIP3   OH244194   1.123   7.275   0.082
 6914TIP3    H144195   1.057   7.234   0.026
 6914TIP3    H244196   1.194   7.298   0.023
 6915TIP3   OH244197   1.254   7.127   1.793
 6915TIP3    H144198   1.243   7.059   1.860
 6915TIP3    H244199   1.180   7.187   1.807
 6916TIP3   OH244200   1.476   7.194   0.056
 6916TIP3    H144201   1.436   7.118   0.097
 6916TIP3    H244202   1.569   7.172   0.052
 6917TIP3   OH244203   0.192   6.713   1.809
 6917TIP3    H144204   0.209   6.693   1.901
 6917TIP3    H244205   0.098   6.732   1.806
 6918TIP3   OH244206   0.619   6.820   0.036
 6918TIP3    H144207   0.642   6.772   0.116
 6918TIP3    H244208   0.621   6.754  -0.033
 6919TIP3   OH244209   0.844   6.779   1.680
 6919TIP3    H144210   0.776   6.842   1.656
 6919TIP3    H244211   0.806   6.694   1.660
 6920TIP3   OH244212   1.319   6.806   1.519
 6920TIP3    H144213   1.338   6.899   1.511
 6920TIP3    H244214   1.224   6.801   1.530
 6921TIP3   OH244215   0.200   6.424   1.729
 6921TIP3    H144216   0.288   6.385   1.734
 6921TIP3    H244217   0.203   6.498   1.789
 6922TIP3   OH244218   0.674   6.642   0.248
 6922TIP3    H144219   0.612   6.606   0.310
 6922TIP3    H244220   0.697   6.569   0.191
 6923TIP3   OH244221   0.574   6.390   1.413
 6923TIP3    H144222   0.518   6.461   1.444
 6923TIP3    H244223   0.659   6.432   1.397
 6924TIP3   OH244224   0.766   6.460   0.050
 6924TIP3    H144225   0.774   6.430  -0.040
 6924TIP3    H244226   0.857   6.467   0.082
 6925TIP3   OH244227   1.208   6.682   1.835
 6925TIP3    H144228   1.208   6.601   1.784
 6925TIP3    H244229   1.118   6.690   1.867
 6926TIP3   OH244230   1.678   6.733   0.006
 6926TIP3    H144231   1.644   6.735  -0.084
 6926TIP3    H244232   1.700   6.824   0.024
 6927TIP3   OH244233   0.652   6.165   1.553
 6927TIP3    H144234   0.658   6.098   1.485
 6927TIP3    H244235   0.623   6.244   1.506
 6928TIP3   OH244236   0.679   6.001   1.323
 6928TIP3    H144237   0.732   6.055   1.265
 6928TIP3    H244238   0.590   6.006   1.287
 6929TIP3   OH244239   0.806   6.519   1.324
 6929TIP3    H144240   0.814   6.541   1.417
 6929TIP3    H244241   0.772   6.599   1.284
 6930TIP3   OH244242   1.324   6.271   1.865
 6930TIP3    H144243   1.327   6.176   1.861
 6930TIP3    H244244   1.402   6.296   1.915
 6931TIP3   OH244245   1.450   6.593   1.638
 6931TIP3    H144246   1.405   6.672   1.607
 6931TIP3    H244247   1.538   6.624   1.662
 6932TIP3   OH244248   0.419   6.257   1.694
 6932TIP3    H144249   0.384   6.181   1.739
 6932TIP3    H244250   0.509   6.231   1.670
 6933TIP3   OH244251   0.769   5.743   1.378
 6933TIP3    H144252   0.738   5.832   1.361
 6933TIP3    H244253   0.698   5.687   1.345
 6934TIP3   OH244254   0.851   6.133   1.737
 6934TIP3    H144255   0.804   6.114   1.818
 6934TIP3    H244256   0.783   6.142   1.671
 6935TIP3   OH244257   1.117   6.066   1.665
 6935TIP3    H144258   1.028   6.077   1.699
 6935TIP3    H244259   1.164   6.020   1.735
 6936TIP3   OH244260   1.347   5.964   1.849
 6936TIP3    H144261   1.342   5.869   1.833
 6936TIP3    H244262   1.315   5.975   1.938
 6937TIP3   OH244263   0.293   6.034   1.800
 6937TIP3    H144264   0.300   5.939   1.791
 6937TIP3    H244265   0.266   6.048   1.890
 6938TIP3   OH244266   0.756   5.714   1.652
 6938TIP3    H144267   0.821   5.644   1.663
 6938TIP3    H244268   0.753   5.730   1.558
 6939TIP3   OH244269   0.822   5.841   1.888
 6939TIP3    H144270   0.804   5.804   1.801
 6939TIP3    H244271   0.758   5.912   1.897
 6940TIP3   OH244272   0.782   7.518   0.156
 6940TIP3    H144273   0.875   7.530   0.176
 6940TIP3    H244274   0.773   7.546   0.065
 6941TIP3   OH244275   0.180   6.961   0.056
 6941TIP3    H144276   0.255   6.976   0.114
 6941TIP3    H244277   0.198   7.016  -0.020
 6942TIP3   OH244278   0.054   7.496   0.598
 6942TIP3    H144279  -0.041   7.508   0.605
 6942TIP3    H244280   0.076   7.438   0.671
 6943TIP3   OH244281   0.106   7.333   0.809
 6943TIP3    H144282   0.051   7.259   0.837
 6943TIP3    H244283   0.154   7.358   0.888
 6944TIP3   OH244284   1.824   7.433   1.092
 6944TIP3    H144285   1.854   7.494   1.160
 6944TIP3    H244286   1.853   7.474   1.010
 6945TIP3   OH244287   1.789   7.312   1.419
 6945TIP3    H144288   1.731   7.244   1.383
 6945TIP3    H244289   1.857   7.323   1.352
 6946TIP3   OH244290   1.649   6.904   1.881
 6946TIP3    H144291   1.590   6.830   1.890
 6946TIP3    H244292   1.595   6.974   1.843
 6947TIP3   OH244293   1.776   6.750   0.426
 6947TIP3    H144294   1.849   6.812   0.430
 6947TIP3    H244295   1.789   6.692   0.501
 6948TIP3   OH244296   1.817   6.561   0.628
 6948TIP3    H144297   1.738   6.518   0.660
 6948TIP3    H244298   1.871   6.575   0.706
 6949TIP3   OH244299   1.784   6.851   1.099
 6949TIP3    H144300   1.846   6.780   1.080
 6949TIP3    H244301   1.825   6.929   1.061
 6950TIP3   OH244302   1.620   7.120   1.321
 6950TIP3    H144303   1.548   7.168   1.362
 6950TIP3    H244304   1.588   7.100   1.233
 6951TIP3   OH244305   1.805   6.582   0.210
 6951TIP3    H144306   1.753   6.625   0.142
 6951TIP3    H244307   1.797   6.640   0.286
 6952TIP3   OH244308   1.592   6.272   0.084
 6952TIP3    H144309   1.670   6.295   0.034
 6952TIP3    H244310   1.575   6.181   0.062
 6953TIP3   OH244311   1.587   6.404   0.685
 6953TIP3    H144312   1.592   6.311   0.661
 6953TIP3    H244313   1.546   6.404   0.772
 6954TIP3   OH244314   0.118   6.695   1.057
 6954TIP3    H144315   0.201   6.703   1.011
 6954TIP3    H244316   0.138   6.716   1.148
 6955TIP3   OH244317   1.725   6.646   1.673
 6955TIP3    H144318   1.765   6.558   1.671
 6955TIP3    H244319   1.729   6.676   1.582
 6956TIP3   OH244320   1.854   6.400   1.670
 6956TIP3    H144321   1.768   6.362   1.652
 6956TIP3    H244322   1.891   6.345   1.739
 6957TIP3   OH244323   1.546   6.012   0.024
 6957TIP3    H144324   1.624   5.974   0.063
 6957TIP3    H244325   1.473   5.969   0.069
 6958TIP3   OH244326   1.533   6.186   0.527
 6958TIP3    H144327   1.557   6.093   0.529
 6958TIP3    H244328   1.516   6.204   0.435
 6959TIP3   OH244329   1.652   6.242   1.057
 6959TIP3    H144330   1.746   6.259   1.054
 6959TIP3    H244331   1.629   6.253   1.150
 6960TIP3   OH244332   1.624   6.316   1.322
 6960TIP3    H144333   1.544   6.336   1.371
 6960TIP3    H244334   1.674   6.398   1.325
 6961TIP3   OH244335   0.113   6.167   1.643
 6961TIP3    H144336   0.126   6.259   1.665
 6961TIP3    H244337   0.171   6.120   1.702
 6962TIP3   OH244338   1.856   5.734   1.839
 6962TIP3    H144339   1.916   5.678   1.790
 6962TIP3    H244340   1.908   5.812   1.860
 6963TIP3   OH244341   1.563   5.918   0.517
 6963TIP3    H144342   1.619   5.876   0.582
 6963TIP3    H244343   1.510   5.847   0.482
 6964TIP3   OH244344   0.156   5.994   1.047
 6964TIP3    H144345   0.140   5.932   1.118
 6964TIP3    H244346   0.125   6.077   1.081
 6965TIP3   OH244347   0.085   6.251   1.116
 6965TIP3    H144348   0.120   6.306   1.046
 6965TIP3    H244349   0.133   6.278   1.195
 6966TIP3   OH244350   1.834   5.951   1.587
 6966TIP3    H144351   1.786   5.982   1.663
 6966TIP3    H244352   1.803   5.861   1.574
 6967TIP3   OH244353   1.777   5.939   0.153
 6967TIP3    H144354   1.849   5.876   0.144
 6967TIP3    H244355   1.816   6.015   0.196
 6968TIP3   OH244356   0.087   5.910   0.421
 6968TIP3    H144357  -0.005   5.909   0.449
 6968TIP3    H244358   0.100   5.999   0.387
 6969TIP3   OH244359   1.476   7.417   0.630
 6969TIP3    H144360   1.566   7.408   0.599
 6969TIP3    H244361   1.483   7.468   0.710
 6970TIP3   OH244362   0.049   5.749   1.331
 6970TIP3    H144363   0.018   5.734   1.420
 6970TIP3    H244364  -0.031   5.759   1.279
 6971TIP3   OH244365   0.301   7.066   1.801
 6971TIP3    H144366   0.221   7.111   1.773
 6971TIP3    H244367   0.296   7.064   1.896
 6972TIP3   OH244368   0.569   7.186   1.309
 6972TIP3    H144369   0.508   7.247   1.349
 6972TIP3    H244370   0.653   7.233   1.308
 6973TIP3   OH244371   1.010   7.283   1.652
 6973TIP3    H144372   0.991   7.270   1.744
 6973TIP3    H244373   1.023   7.378   1.643
 6974TIP3   OH244374   1.212   7.471   1.563
 6974TIP3    H144375   1.231   7.378   1.552
 6974TIP3    H244376   1.254   7.494   1.646
 6975TIP3   OH244377   1.694   5.699   1.468
 6975TIP3    H144378   1.611   5.705   1.420
 6975TIP3    H244379   1.723   5.609   1.455
 6976TIP3   OH244380   0.277   7.568   1.327
 6976TIP3    H144381   0.183   7.583   1.317
 6976TIP3    H244382   0.284   7.503   1.396
 6977TIP3   OH244383   0.539   7.474   1.291
 6977TIP3    H144384   0.451   7.477   1.329
 6977TIP3    H244385   0.530   7.521   1.208
 6978TIP3   OH244386   1.037   7.500   1.140
 6978TIP3    H144387   0.956   7.516   1.091
 6978TIP3    H244388   1.029   7.554   1.218
 6979TIP3   OH244389   1.203   7.329   1.272
 6979TIP3    H144390   1.128   7.365   1.226
 6979TIP3    H244391   1.261   7.403   1.287
 6980TIP3   OH244392   1.430   7.506   1.288
 6980TIP3    H144393   1.392   7.586   1.251
 6980TIP3    H244394   1.468   7.461   1.213
 6981TIP3   OH244395   0.250   7.373   1.042
 6981TIP3    H144396   0.224   7.338   1.127
 6981TIP3    H244397   0.327   7.322   1.017
 6982TIP3   OH244398   0.463   7.232   0.922
 6982TIP3    H144399   0.437   7.146   0.956
 6982TIP3    H244400   0.544   7.253   0.968
 6983TIP3   OH244401   0.722   7.272   1.030
 6983TIP3    H144402   0.735   7.182   1.002
 6983TIP3    H244403   0.752   7.273   1.121
 6984TIP3   OH244404   0.996   5.821   0.853
 6984TIP3    H144405   0.936   5.766   0.904
 6984TIP3    H244406   1.083   5.796   0.884
 6985TIP3   OH244407   1.566   5.701   0.883
 6985TIP3    H144408   1.625   5.764   0.843
 6985TIP3    H244409   1.489   5.752   0.907
 6986TIP3   OH244410   1.750   5.813   0.694
 6986TIP3    H144411   1.811   5.740   0.685
 6986TIP3    H244412   1.805   5.887   0.723
 6987TIP3   OH244413   0.297   5.725   0.641
 6987TIP3    H144414   0.208   5.725   0.605
 6987TIP3    H244415   0.321   5.633   0.646
 6988TIP3   OH244416   0.236   5.707   0.297
 6988TIP3    H144417   0.254   5.763   0.221
 6988TIP3    H244418   0.180   5.760   0.353
 6989TIP3   OH244419   0.770   5.688   0.688
 6989TIP3    H144420   0.778   5.782   0.676
 6989TIP3    H244421   0.781   5.674   0.782
 6990TIP3   OH244422   1.283   5.775   0.865
 6990TIP3    H144423   1.301   5.780   0.771
 6990TIP3    H244424   1.257   5.684   0.879
 6991TIP3   OH244425   1.425   5.713   0.388
 6991TIP3    H144426   1.390   5.685   0.304
 6991TIP3    H244427   1.391   5.649   0.451
 6992TIP3   OH244428   0.193   7.303   0.303
 6992TIP3    H144429   0.098   7.294   0.314
 6992TIP3    H244430   0.205   7.395   0.280
 6993TIP3   OH244431   0.295   5.874   0.083
 6993TIP3    H144432   0.364   5.892   0.020
 6993TIP3    H244433   0.257   5.959   0.103
 6994TIP3   OH244434   0.858   5.975   0.389
 6994TIP3    H144435   0.903   5.912   0.445
 6994TIP3    H244436   0.869   6.059   0.434
 6995TIP3   OH244437   1.057   7.505   0.217
 6995TIP3    H144438   1.131   7.560   0.193
 6995TIP3    H244439   1.074   7.421   0.174
 6996TIP3   OH244440   1.707   7.366   0.478
 6996TIP3    H144441   1.685   7.278   0.449
 6996TIP3    H244442   1.684   7.422   0.405
 6997TIP3   OH244443   0.279   5.754   1.634
 6997TIP3    H144444   0.222   5.689   1.675
 6997TIP3    H244445   0.362   5.747   1.680
 6998TIP3   OH244446   0.506   5.706   1.781
 6998TIP3    H144447   0.588   5.733   1.740
 6998TIP3    H244448   0.520   5.614   1.805
 6999TIP3   OH244449   0.373   7.379   0.040
 6999TIP3    H144450   0.340   7.454   0.090
 6999TIP3    H244451   0.363   7.305   0.100
 7000TIP3   OH244452   1.348   5.684   1.813
 7000TIP3    H144453   1.322   5.612   1.872
 7000TIP3    H244454   1.441   5.668   1.796
 7001TIP3   OH244455   1.536   7.302   1.715
 7001TIP3    H144456   1.514   7.261   1.631
 7001TIP3    H244457   1.465   7.365   1.730
 7002TIP3   OH244458   3.071   6.646   0.677
 7002TIP3    H144459   3.057   6.740   0.683
 7002TIP3    H244460   3.004   6.615   0.616
 7003TIP3   OH244461   2.935   6.586   1.049
 7003TIP3    H144462   2.967   6.547   1.131
 7003TIP3    H244463   2.889   6.515   1.005
 7004TIP3   OH244464   2.160   6.475   1.179
 7004TIP3    H144465   2.175   6.413   1.251
 7004TIP3    H244466   2.248   6.501   1.151
 7005TIP3   OH244467   3.318   6.885   0.875
 7005TIP3    H144468   3.290   6.808   0.923
 7005TIP3    H244469   3.353   6.945   0.941
 7006TIP3   OH244470   2.313   6.978   0.978
 7006TIP3    H144471   2.280   6.892   0.954
 7006TIP3    H244472   2.403   6.963   1.006
 7007TIP3   OH244473   1.932   6.314   0.545
 7007TIP3    H144474   1.914   6.400   0.582
 7007TIP3    H244475   1.865   6.303   0.477
 7008TIP3   OH244476   2.016   6.567   0.829
 7008TIP3    H144477   2.050   6.479   0.846
 7008TIP3    H244478   2.092   6.625   0.841
 7009TIP3   OH244479   3.069   7.331   0.924
 7009TIP3    H144480   3.104   7.281   0.850
 7009TIP3    H244481   3.059   7.266   0.994
 7010TIP3   OH244482   2.809   6.834   1.075
 7010TIP3    H144483   2.844   6.751   1.043
 7010TIP3    H244484   2.877   6.867   1.134
 7011TIP3   OH244485   3.665   5.962   1.149
 7011TIP3    H144486   3.666   6.022   1.224
 7011TIP3    H244487   3.736   5.993   1.092
 7012TIP3   OH244488   3.129   6.276   1.088
 7012TIP3    H144489   3.151   6.184   1.107
 7012TIP3    H244490   3.099   6.275   0.997
 7013TIP3   OH244491   2.452   6.060   0.811
 7013TIP3    H144492   2.461   6.144   0.765
 7013TIP3    H244493   2.395   6.008   0.754
 7014TIP3   OH244494   3.219   6.116   0.657
 7014TIP3    H144495   3.260   6.084   0.737
 7014TIP3    H244496   3.292   6.154   0.607
 7015TIP3   OH244497   2.116   6.313   0.874
 7015TIP3    H144498   2.176   6.268   0.934
 7015TIP3    H244499   2.141   6.281   0.787
 7016TIP3   OH244500   2.569   6.454   0.856
 7016TIP3    H144501   2.654   6.424   0.887
 7016TIP3    H244502   2.539   6.384   0.797
 7017TIP3   OH244503   3.655   6.115   1.379
 7017TIP3    H144504   3.609   6.198   1.367
 7017TIP3    H244505   3.719   6.132   1.448
 7018TIP3   OH244506   2.322   5.972   1.232
 7018TIP3    H144507   2.294   6.043   1.174
 7018TIP3    H244508   2.255   5.969   1.300
 7019TIP3   OH244509   2.998   6.899   0.584
 7019TIP3    H144510   3.015   6.914   0.491
 7019TIP3    H244511   2.959   6.981   0.614
 7020TIP3   OH244512   2.563   6.757   1.175
 7020TIP3    H144513   2.515   6.830   1.215
 7020TIP3    H244514   2.641   6.798   1.137
 7021TIP3   OH244515   3.353   6.062   0.892
 7021TIP3    H144516   3.303   6.022   0.963
 7021TIP3    H244517   3.421   6.113   0.935
 7022TIP3   OH244518   2.290   6.154   1.020
 7022TIP3    H144519   2.343   6.207   1.080
 7022TIP3    H244520   2.354   6.113   0.962
 7023TIP3   OH244521   2.426   6.962   1.298
 7023TIP3    H144522   2.425   7.058   1.293
 7023TIP3    H244523   2.344   6.940   1.344
 7024TIP3   OH244524   2.000   6.921   0.410
 7024TIP3    H144525   1.994   6.982   0.337
 7024TIP3    H244526   2.026   6.975   0.485
 7025TIP3   OH244527   3.359   7.105   1.066
 7025TIP3    H144528   3.264   7.108   1.074
 7025TIP3    H244529   3.385   7.195   1.047
 7026TIP3   OH244530   3.399   5.851   1.184
 7026TIP3    H144531   3.336   5.923   1.178
 7026TIP3    H244532   3.484   5.892   1.170
 7027TIP3   OH244533   2.670   5.661   0.973
 7027TIP3    H144534   2.647   5.569   0.989
 7027TIP3    H244535   2.593   5.710   1.003
 7028TIP3   OH244536   3.183   7.221   0.694
 7028TIP3    H144537   3.227   7.138   0.679
 7028TIP3    H244538   3.252   7.287   0.682
 7029TIP3   OH244539   3.317   6.997   0.624
 7029TIP3    H144540   3.334   6.928   0.559
 7029TIP3    H244541   3.319   6.951   0.708
 7030TIP3   OH244542   3.483   6.887   1.422
 7030TIP3    H144543   3.474   6.827   1.348
 7030TIP3    H244544   3.506   6.971   1.382
 7031TIP3   OH244545   2.927   6.583   0.447
 7031TIP3    H144546   2.868   6.656   0.428
 7031TIP3    H244547   2.999   6.593   0.385
 7032TIP3   OH244548   2.944   6.456   0.136
 7032TIP3    H144549   3.010   6.485   0.200
 7032TIP3    H244550   2.995   6.415   0.067
 7033TIP3   OH244551   3.644   6.549   1.274
 7033TIP3    H144552   3.576   6.614   1.257
 7033TIP3    H244553   3.712   6.568   1.208
 7034TIP3   OH244554   3.298   6.620   0.525
 7034TIP3    H144555   3.228   6.632   0.588
 7034TIP3    H244556   3.364   6.568   0.571
 7035TIP3   OH244557   3.254   6.428   1.443
 7035TIP3    H144558   3.272   6.498   1.507
 7035TIP3    H244559   3.184   6.463   1.388
 7036TIP3   OH244560   2.441   6.646   0.700
 7036TIP3    H144561   2.425   6.604   0.615
 7036TIP3    H244562   2.493   6.581   0.748
 7037TIP3   OH244563   2.605   7.002   0.974
 7037TIP3    H144564   2.601   7.010   0.879
 7037TIP3    H244565   2.682   6.947   0.991
 7038TIP3   OH244566   2.417   6.550   1.069
 7038TIP3    H144567   2.473   6.519   0.998
 7038TIP3    H244568   2.468   6.618   1.112
 7039TIP3   OH244569   3.089   7.117   1.129
 7039TIP3    H144570   3.090   7.180   1.201
 7039TIP3    H244571   3.066   7.034   1.170
 7040TIP3   OH244572   2.602   6.995   1.513
 7040TIP3    H144573   2.535   7.042   1.561
 7040TIP3    H244574   2.560   6.968   1.432
 7041TIP3   OH244575   3.163   6.551   0.296
 7041TIP3    H144576   3.209   6.577   0.375
 7041TIP3    H244577   3.214   6.591   0.225
 7042TIP3   OH244578   2.266   6.607   1.462
 7042TIP3    H144579   2.253   6.701   1.455
 7042TIP3    H244580   2.178   6.570   1.468
 7043TIP3   OH244581   2.919   7.164   0.631
 7043TIP3    H144582   3.005   7.187   0.666
 7043TIP3    H244583   2.891   7.242   0.584
 7044TIP3   OH244584   2.399   7.156   1.623
 7044TIP3    H144585   2.390   7.175   1.530
 7044TIP3    H244586   2.410   7.242   1.665
 7045TIP3   OH244587   3.564   5.691   0.279
 7045TIP3    H144588   3.483   5.728   0.313
 7045TIP3    H244589   3.611   5.766   0.242
 7046TIP3   OH244590   2.353   6.556   0.429
 7046TIP3    H144591   2.301   6.628   0.393
 7046TIP3    H244592   2.288   6.490   0.454
 7047TIP3   OH244593   3.665   7.109   0.133
 7047TIP3    H144594   3.691   7.201   0.136
 7047TIP3    H244595   3.747   7.062   0.119
 7048TIP3   OH244596   1.977   6.806   1.375
 7048TIP3    H144597   1.928   6.803   1.293
 7048TIP3    H244598   1.980   6.715   1.404
 7049TIP3   OH244599   1.957   7.063   1.029
 7049TIP3    H144600   2.049   7.041   1.013
 7049TIP3    H244601   1.959   7.122   1.104
 7050TIP3   OH244602   3.734   7.132   1.624
 7050TIP3    H144603   3.713   7.038   1.624
 7050TIP3    H244604   3.659   7.173   1.666
 7051TIP3   OH244605   2.841   7.098   1.613
 7051TIP3    H144606   2.836   7.193   1.602
 7051TIP3    H244607   2.759   7.065   1.577
 7052TIP3   OH244608   2.899   7.422   0.496
 7052TIP3    H144609   2.889   7.461   0.409
 7052TIP3    H244610   2.889   7.495   0.557
 7053TIP3   OH244611   2.264   7.308   0.677
 7053TIP3    H144612   2.290   7.288   0.767
 7053TIP3    H244613   2.202   7.239   0.654
 7054TIP3   OH244614   3.227   7.416   0.189
 7054TIP3    H144615   3.281   7.351   0.143
 7054TIP3    H244616   3.190   7.368   0.263
 7055TIP3   OH244617   3.140   7.313   0.422
 7055TIP3    H144618   3.053   7.340   0.451
 7055TIP3    H244619   3.172   7.254   0.490
 7056TIP3   OH244620   3.437   6.283   1.682
 7056TIP3    H144621   3.376   6.245   1.620
 7056TIP3    H244622   3.455   6.213   1.745
 7057TIP3   OH244623   2.204   6.931   1.457
 7057TIP3    H144624   2.209   6.910   1.550
 7057TIP3    H244625   2.122   6.893   1.428
 7058TIP3   OH244626   2.428   5.782   1.052
 7058TIP3    H144627   2.344   5.777   1.006
 7058TIP3    H244628   2.416   5.852   1.117
 7059TIP3   OH244629   2.908   5.775   1.398
 7059TIP3    H144630   2.960   5.733   1.466
 7059TIP3    H244631   2.818   5.758   1.423
 7060TIP3   OH244632   3.217   6.160   1.512
 7060TIP3    H144633   3.147   6.149   1.576
 7060TIP3    H244634   3.213   6.252   1.487
 7061TIP3   OH244635   3.314   6.673   0.102
 7061TIP3    H144636   3.390   6.656   0.046
 7061TIP3    H244637   3.329   6.761   0.137
 7062TIP3   OH244638   2.845   6.002   0.095
 7062TIP3    H144639   2.815   5.973   0.182
 7062TIP3    H244640   2.935   6.030   0.110
 7063TIP3   OH244641   2.445   6.301   1.195
 7063TIP3    H144642   2.425   6.306   1.289
 7063TIP3    H244643   2.443   6.391   1.165
 7064TIP3   OH244644   2.445   6.293   0.662
 7064TIP3    H144645   2.350   6.282   0.655
 7064TIP3    H244646   2.478   6.277   0.574
 7065TIP3   OH244647   2.968   6.324   0.529
 7065TIP3    H144648   2.950   6.414   0.504
 7065TIP3    H244649   3.050   6.302   0.485
 7066TIP3   OH244650   2.880   6.349   1.668
 7066TIP3    H144651   2.817   6.288   1.707
 7066TIP3    H244652   2.959   6.339   1.722
 7067TIP3   OH244653   3.069   6.300   0.823
 7067TIP3    H144654   3.053   6.378   0.769
 7067TIP3    H244655   3.102   6.235   0.762
 7068TIP3   OH244656   2.204   6.278   1.373
 7068TIP3    H144657   2.238   6.302   1.459
 7068TIP3    H244658   2.172   6.188   1.384
 7069TIP3   OH244659   2.556   6.064   0.095
 7069TIP3    H144660   2.623   6.012   0.140
 7069TIP3    H244661   2.606   6.134   0.052
 7070TIP3   OH244662   1.926   6.019   0.742
 7070TIP3    H144663   1.966   6.009   0.828
 7070TIP3    H244664   1.914   6.114   0.732
 7071TIP3   OH244665   1.942   6.126   0.273
 7071TIP3    H144666   2.017   6.163   0.225
 7071TIP3    H244667   1.887   6.201   0.294
 7072TIP3   OH244668   3.029   6.452   1.270
 7072TIP3    H144669   3.075   6.393   1.211
 7072TIP3    H244670   2.972   6.396   1.322
 7073TIP3   OH244671   2.731   6.015   0.754
 7073TIP3    H144672   2.645   6.021   0.796
 7073TIP3    H244673   2.787   5.974   0.820
 7074TIP3   OH244674   2.184   6.221   0.621
 7074TIP3    H144675   2.097   6.239   0.585
 7074TIP3    H244676   2.193   6.126   0.614
 7075TIP3   OH244677   2.510   6.220   0.395
 7075TIP3    H144678   2.598   6.211   0.432
 7075TIP3    H244679   2.517   6.295   0.336
 7076TIP3   OH244680   3.152   5.995   1.099
 7076TIP3    H144681   3.104   6.002   1.182
 7076TIP3    H244682   3.096   5.942   1.043
 7077TIP3   OH244683   2.436   6.344   0.148
 7077TIP3    H144684   2.372   6.402   0.107
 7077TIP3    H244685   2.521   6.377   0.118
 7078TIP3   OH244686   3.391   7.591   1.717
 7078TIP3    H144687   3.428   7.593   1.629
 7078TIP3    H244688   3.465   7.570   1.774
 7079TIP3   OH244689   2.230   6.846   1.730
 7079TIP3    H144690   2.295   6.788   1.769
 7079TIP3    H244691   2.146   6.807   1.754
 7080TIP3   OH244692   2.807   6.348   0.957
 7080TIP3    H144693   2.883   6.304   0.919
 7080TIP3    H244694   2.781   6.293   1.031
 7081TIP3   OH244695   2.278   5.955   0.609
 7081TIP3    H144696   2.231   5.877   0.638
 7081TIP3    H244697   2.327   5.926   0.532
 7082TIP3   OH244698   2.709   6.215   1.183
 7082TIP3    H144699   2.622   6.252   1.197
 7082TIP3    H244700   2.759   6.239   1.261
 7083TIP3   OH244701   2.759   6.791   0.366
 7083TIP3    H144702   2.686   6.747   0.321
 7083TIP3    H244703   2.723   6.816   0.451
 7084TIP3   OH244704   3.451   6.735   1.198
 7084TIP3    H144705   3.508   6.783   1.139
 7084TIP3    H244706   3.377   6.707   1.144
 7085TIP3   OH244707   3.101   6.097   0.198
 7085TIP3    H144708   3.141   6.130   0.117
 7085TIP3    H244709   3.129   6.158   0.266
 7086TIP3   OH244710   2.956   6.843   1.530
 7086TIP3    H144711   2.975   6.770   1.589
 7086TIP3    H244712   2.898   6.900   1.580
 7087TIP3   OH244713   3.200   6.281   0.378
 7087TIP3    H144714   3.286   6.263   0.415
 7087TIP3    H244715   3.207   6.370   0.342
 7088TIP3   OH244716   2.257   6.709   0.898
 7088TIP3    H144717   2.317   6.699   0.823
 7088TIP3    H244718   2.296   6.656   0.967
 7089TIP3   OH244719   2.993   6.925   0.295
 7089TIP3    H144720   2.952   7.012   0.301
 7089TIP3    H244721   2.921   6.864   0.311
 7090TIP3   OH244722   1.985   6.549   1.475
 7090TIP3    H144723   1.963   6.497   1.553
 7090TIP3    H244724   1.917   6.527   1.412
 7091TIP3   OH244725   2.674   6.533   1.649
 7091TIP3    H144726   2.608   6.480   1.604
 7091TIP3    H244727   2.753   6.480   1.648
 7092TIP3   OH244728   3.146   7.093   1.507
 7092TIP3    H144729   3.059   7.055   1.495
 7092TIP3    H244730   3.156   7.100   1.602
 7093TIP3   OH244731   3.643   6.320   0.318
 7093TIP3    H144732   3.583   6.292   0.249
 7093TIP3    H244733   3.674   6.406   0.290
 7094TIP3   OH244734   3.694   6.853   1.588
 7094TIP3    H144735   3.610   6.866   1.545
 7094TIP3    H244736   3.757   6.841   1.517
 7095TIP3   OH244737   3.510   7.134   0.362
 7095TIP3    H144738   3.473   7.051   0.393
 7095TIP3    H244739   3.559   7.110   0.283
 7096TIP3   OH244740   3.239   6.658   1.028
 7096TIP3    H144741   3.145   6.642   1.021
 7096TIP3    H244742   3.280   6.580   0.991
 7097TIP3   OH244743   2.531   7.070   0.712
 7097TIP3    H144744   2.556   7.150   0.666
 7097TIP3    H244745   2.435   7.071   0.711
 7098TIP3   OH244746   2.079   6.502   0.193
 7098TIP3    H144747   2.122   6.583   0.220
 7098TIP3    H244748   1.985   6.524   0.193
 7099TIP3   OH244749   2.615   6.836   0.591
 7099TIP3    H144750   2.602   6.921   0.634
 7099TIP3    H244751   2.558   6.776   0.638
 7100TIP3   OH244752   2.721   7.254   1.300
 7100TIP3    H144753   2.771   7.332   1.277
 7100TIP3    H244754   2.788   7.187   1.317
 7101TIP3   OH244755   2.517   7.322   0.574
 7101TIP3    H144756   2.424   7.320   0.596
 7101TIP3    H244757   2.552   7.397   0.622
 7102TIP3   OH244758   3.019   6.874   1.260
 7102TIP3    H144759   2.993   6.857   1.350
 7102TIP3    H244760   3.086   6.808   1.241
 7103TIP3   OH244761   3.256   6.971   0.185
 7103TIP3    H144762   3.307   6.939   0.259
 7103TIP3    H244763   3.165   6.962   0.213
 7104TIP3   OH244764   3.311   7.320   1.497
 7104TIP3    H144765   3.252   7.245   1.486
 7104TIP3    H244766   3.307   7.366   1.414
 7105TIP3   OH244767   3.734   7.385   0.162
 7105TIP3    H144768   3.733   7.386   0.066
 7105TIP3    H244769   3.657   7.437   0.187
 7106TIP3   OH244770   2.113   6.010   1.417
 7106TIP3    H144771   2.019   6.026   1.413
 7106TIP3    H244772   2.123   5.942   1.483
 7107TIP3   OH244773   3.403   6.835   0.383
 7107TIP3    H144774   3.359   6.762   0.427
 7107TIP3    H244775   3.496   6.813   0.387
 7108TIP3   OH244776   2.091   7.224   1.264
 7108TIP3    H144777   2.123   7.153   1.319
 7108TIP3    H244778   2.114   7.303   1.313
 7109TIP3   OH244779   2.543   7.035   0.259
 7109TIP3    H144780   2.617   6.986   0.295
 7109TIP3    H244781   2.564   7.126   0.276
 7110TIP3   OH244782   2.186   6.741   0.302
 7110TIP3    H144783   2.117   6.786   0.351
 7110TIP3    H244784   2.229   6.811   0.253
 7111TIP3   OH244785   3.020   6.024   1.342
 7111TIP3    H144786   3.086   6.038   1.410
 7111TIP3    H244787   2.977   5.942   1.366
 7112TIP3   OH244788   3.089   5.946   0.468
 7112TIP3    H144789   3.089   5.996   0.387
 7112TIP3    H244790   3.126   6.006   0.534
 7113TIP3   OH244791   2.844   7.151   0.302
 7113TIP3    H144792   2.769   7.206   0.323
 7113TIP3    H244793   2.894   7.202   0.238
 7114TIP3   OH244794   2.744   6.170   0.526
 7114TIP3    H144795   2.822   6.225   0.530
 7114TIP3    H244796   2.742   6.125   0.610
 7115TIP3   OH244797   2.877   6.266   1.400
 7115TIP3    H144798   2.873   6.284   1.494
 7115TIP3    H244799   2.917   6.179   1.393
 7116TIP3   OH244800   2.850   5.832   0.570
 7116TIP3    H144801   2.825   5.891   0.640
 7116TIP3    H244802   2.939   5.859   0.546
 7117TIP3   OH244803   2.607   7.296   0.317
 7117TIP3    H144804   2.611   7.385   0.281
 7117TIP3    H244805   2.578   7.309   0.407
 7118TIP3   OH244806   2.443   5.954   0.368
 7118TIP3    H144807   2.472   6.037   0.407
 7118TIP3    H244808   2.524   5.903   0.357
 7119TIP3   OH244809   3.433   5.986   1.505
 7119TIP3    H144810   3.357   6.043   1.502
 7119TIP3    H244811   3.499   6.031   1.453
 7120TIP3   OH244812   3.339   6.417   0.920
 7120TIP3    H144813   3.256   6.370   0.928
 7120TIP3    H244814   3.402   6.366   0.971
 7121TIP3   OH244815   2.286   6.966   0.163
 7121TIP3    H144816   2.347   7.015   0.219
 7121TIP3    H244817   2.344   6.915   0.105
 7122TIP3   OH244818   2.153   6.247   0.122
 7122TIP3    H144819   2.130   6.336   0.150
 7122TIP3    H244820   2.126   6.242   0.031
 7123TIP3   OH244821   3.452   7.373   1.058
 7123TIP3    H144822   3.433   7.432   0.984
 7123TIP3    H244823   3.548   7.376   1.066
 7124TIP3   OH244824   2.171   5.757   0.949
 7124TIP3    H144825   2.166   5.743   0.854
 7124TIP3    H244826   2.149   5.672   0.987
 7125TIP3   OH244827   2.062   7.133   0.593
 7125TIP3    H144828   2.005   7.169   0.660
 7125TIP3    H244829   2.041   7.182   0.514
 7126TIP3   OH244830   2.024   7.394   1.733
 7126TIP3    H144831   2.091   7.375   1.798
 7126TIP3    H244832   1.985   7.309   1.714
 7127TIP3   OH244833   2.472   7.235   1.901
 7127TIP3    H144834   2.478   7.247   1.996
 7127TIP3    H244835   2.552   7.274   1.867
 7128TIP3   OH244836   2.982   7.270   0.097
 7128TIP3    H144837   2.932   7.229   0.027
 7128TIP3    H244838   3.072   7.269   0.066
 7129TIP3   OH244839   3.154   7.109   1.787
 7129TIP3    H144840   3.196   7.026   1.807
 7129TIP3    H244841   3.213   7.176   1.823
 7130TIP3   OH244842   3.352   7.210   0.062
 7130TIP3    H144843   3.323   7.130   0.106
 7130TIP3    H244844   3.443   7.194   0.040
 7131TIP3   OH244845   1.961   6.773   1.805
 7131TIP3    H144846   1.899   6.700   1.809
 7131TIP3    H244847   1.921   6.836   1.745
 7132TIP3   OH244848   2.464   6.797   0.039
 7132TIP3    H144849   2.502   6.760   0.118
 7132TIP3    H244850   2.497   6.743  -0.032
 7133TIP3   OH244851   2.651   6.806   1.711
 7133TIP3    H144852   2.642   6.848   1.626
 7133TIP3    H244853   2.669   6.714   1.691
 7134TIP3   OH244854   3.248   6.788   1.525
 7134TIP3    H144855   3.333   6.822   1.497
 7134TIP3    H244856   3.188   6.860   1.511
 7135TIP3   OH244857   2.554   6.644   0.250
 7135TIP3    H144858   2.498   6.606   0.316
 7135TIP3    H244859   2.597   6.569   0.209
 7136TIP3   OH244860   2.474   6.425   1.453
 7136TIP3    H144861   2.406   6.491   1.462
 7136TIP3    H244862   2.544   6.469   1.404
 7137TIP3   OH244863   2.677   6.453   0.080
 7137TIP3    H144864   2.686   6.468  -0.014
 7137TIP3    H244865   2.767   6.451   0.113
 7138TIP3   OH244866   3.028   6.662   1.773
 7138TIP3    H144867   3.119   6.638   1.760
 7138TIP3    H244868   2.994   6.597   1.834
 7139TIP3   OH244869   3.581   6.745   8.488
 7139TIP3    H144870   3.542   6.766   8.403
 7139TIP3    H244871   3.621   6.827   8.517
 7140TIP3   OH244872   2.592   5.967   1.295
 7140TIP3    H144873   2.637   6.043   1.260
 7140TIP3    H244874   2.499   5.986   1.284
 7141TIP3   OH244875   2.673   6.543   1.311
 7141TIP3    H144876   2.767   6.552   1.325
 7141TIP3    H244877   2.647   6.623   1.265
 7142TIP3   OH244878   3.165   6.300   1.849
 7142TIP3    H144879   3.182   6.206   1.843
 7142TIP3    H244880   3.251   6.341   1.845
 7143TIP3   OH244881   3.301   6.618   1.731
 7143TIP3    H144882   3.283   6.683   1.663
 7143TIP3    H244883   3.388   6.584   1.710
 7144TIP3   OH244884   2.631   5.718   1.397
 7144TIP3    H144885   2.620   5.808   1.365
 7144TIP3    H244886   2.561   5.668   1.356
 7145TIP3   OH244887   2.690   6.181   1.767
 7145TIP3    H144888   2.705   6.116   1.835
 7145TIP3    H244889   2.597   6.172   1.746
 7146TIP3   OH244890   3.022   6.075   1.690
 7146TIP3    H144891   2.940   6.072   1.738
 7146TIP3    H244892   3.084   6.025   1.743
 7147TIP3   OH244893   3.202   5.952   1.860
 7147TIP3    H144894   3.205   5.861   1.832
 7147TIP3    H244895   3.176   5.948   1.952
 7148TIP3   OH244896   2.617   5.653   1.667
 7148TIP3    H144897   2.690   5.590   1.667
 7148TIP3    H244898   2.613   5.685   1.577
 7149TIP3   OH244899   2.675   5.866   1.845
 7149TIP3    H144900   2.653   5.789   1.792
 7149TIP3    H244901   2.591   5.898   1.877
 7150TIP3   OH244902   2.653   7.514   0.153
 7150TIP3    H144903   2.744   7.526   0.180
 7150TIP3    H244904   2.650   7.547   0.063
 7151TIP3   OH244905   2.010   6.991   0.082
 7151TIP3    H144906   2.102   6.988   0.109
 7151TIP3    H244907   2.012   6.973  -0.012
 7152TIP3   OH244908   1.926   7.467   0.597
 7152TIP3    H144909   1.852   7.435   0.547
 7152TIP3    H244910   1.935   7.405   0.670
 7153TIP3   OH244911   1.943   7.283   0.802
 7153TIP3    H144912   1.873   7.232   0.843
 7153TIP3    H244913   2.002   7.305   0.874
 7154TIP3   OH244914   3.724   7.440   1.057
 7154TIP3    H144915   3.735   7.495   1.135
 7154TIP3    H244916   3.807   7.394   1.048
 7155TIP3   OH244917   3.667   7.328   1.426
 7155TIP3    H144918   3.625   7.262   1.370
 7155TIP3    H244919   3.711   7.277   1.494
 7156TIP3   OH244920   3.456   6.977   1.868
 7156TIP3    H144921   3.487   6.891   1.895
 7156TIP3    H244922   3.522   7.038   1.900
 7157TIP3   OH244923   3.666   6.751   0.414
 7157TIP3    H144924   3.738   6.813   0.416
 7157TIP3    H244925   3.681   6.693   0.489
 7158TIP3   OH244926   3.713   6.570   0.620
 7158TIP3    H144927   3.630   6.536   0.654
 7158TIP3    H244928   3.768   6.583   0.697
 7159TIP3   OH244929   3.644   6.863   1.057
 7159TIP3    H144930   3.713   6.797   1.062
 7159TIP3    H244931   3.691   6.946   1.045
 7160TIP3   OH244932   3.503   7.135   1.303
 7160TIP3    H144933   3.425   7.161   1.352
 7160TIP3    H244934   3.471   7.114   1.216
 7161TIP3   OH244935   3.703   6.572   0.207
 7161TIP3    H144936   3.652   6.610   0.135
 7161TIP3    H244937   3.690   6.633   0.280
 7162TIP3   OH244938   3.485   6.265   0.097
 7162TIP3    H144939   3.558   6.288   0.040
 7162TIP3    H244940   3.472   6.172   0.082
 7163TIP3   OH244941   3.461   6.451   0.673
 7163TIP3    H144942   3.462   6.360   0.642
 7163TIP3    H244943   3.425   6.446   0.762
 7164TIP3   OH244944   1.952   6.631   1.093
 7164TIP3    H144945   1.954   6.608   1.000
 7164TIP3    H244946   2.026   6.584   1.131
 7165TIP3   OH244947   3.555   6.596   1.617
 7165TIP3    H144948   3.598   6.511   1.604
 7165TIP3    H244949   3.615   6.659   1.577
 7166TIP3   OH244950   3.687   6.358   1.593
 7166TIP3    H144951   3.605   6.328   1.633
 7166TIP3    H244952   3.751   6.290   1.616
 7167TIP3   OH244953   3.448   6.001   0.048
 7167TIP3    H144954   3.536   5.967   0.063
 7167TIP3    H244955   3.390   5.933   0.081
 7168TIP3   OH244956   3.445   6.211   0.501
 7168TIP3    H144957   3.470   6.119   0.511
 7168TIP3    H244958   3.517   6.250   0.451
 7169TIP3   OH244959   3.503   6.243   1.056
 7169TIP3    H144960   3.597   6.256   1.045
 7169TIP3    H244961   3.487   6.259   1.149
 7170TIP3   OH244962   3.491   6.327   1.322
 7170TIP3    H144963   3.413   6.360   1.368
 7170TIP3    H244964   3.549   6.403   1.316
 7171TIP3   OH244965   3.717   5.713   1.827
 7171TIP3    H144966   3.786   5.649   1.808
 7171TIP3    H244967   3.734   5.785   1.766
 7172TIP3   OH244968   3.505   5.943   0.517
 7172TIP3    H144969   3.536   5.901   0.597
 7172TIP3    H244970   3.443   5.880   0.479
 7173TIP3   OH244971   2.045   5.998   0.991
 7173TIP3    H144972   2.085   5.911   0.992
 7173TIP3    H244973   2.116   6.058   1.017
 7174TIP3   OH244974   1.917   6.307   1.071
 7174TIP3    H144975   1.983   6.312   1.002
 7174TIP3    H244976   1.965   6.325   1.152
 7175TIP3   OH244977   3.672   5.909   1.639
 7175TIP3    H144978   3.587   5.951   1.656
 7175TIP3    H244979   3.653   5.846   1.570
 7176TIP3   OH244980   3.692   5.904   0.134
 7176TIP3    H144981   3.751   5.874   0.065
 7176TIP3    H244982   3.741   5.972   0.180
 7177TIP3   OH244983   1.930   5.894   0.428
 7177TIP3    H144984   1.902   5.906   0.518
 7177TIP3    H244985   1.936   5.983   0.393
 7178TIP3   OH244986   3.348   7.437   0.641
 7178TIP3    H144987   3.426   7.412   0.592
 7178TIP3    H244988   3.381   7.479   0.720
 7179TIP3   OH244989   1.900   5.745   1.275
 7179TIP3    H144990   1.840   5.738   1.349
 7179TIP3    H244991   1.867   5.820   1.225
 7180TIP3   OH244992   2.108   7.111   1.769
 7180TIP3    H144993   2.060   7.073   1.695
 7180TIP3    H244994   2.059   7.083   1.846
 7181TIP3   OH244995   2.451   7.232   1.358
 7181TIP3    H144996   2.423   7.318   1.328
 7181TIP3    H244997   2.546   7.232   1.348
 7182TIP3   OH244998   2.864   7.373   1.669
 7182TIP3    H144999   2.878   7.362   1.763
 7182TIP3    H245000   2.947   7.405   1.636
 7183TIP3   OH245001   3.112   7.477   1.618
 7183TIP3    H145002   3.185   7.427   1.583
 7183TIP3    H245003   3.145   7.516   1.699
 7184TIP3   OH245004   3.594   5.701   1.465
 7184TIP3    H145005   3.516   5.716   1.412
 7184TIP3    H245006   3.617   5.610   1.449
 7185TIP3   OH245007   2.136   7.483   1.369
 7185TIP3    H145008   2.057   7.521   1.329
 7185TIP3    H245009   2.141   7.523   1.455
 7186TIP3   OH245010   2.401   7.492   1.288
 7186TIP3    H145011   2.309   7.495   1.316
 7186TIP3    H245012   2.403   7.543   1.207
 7187TIP3   OH245013   2.861   7.468   1.196
 7187TIP3    H145014   2.824   7.505   1.116
 7187TIP3    H245015   2.882   7.544   1.250
 7188TIP3   OH245016   3.087   7.340   1.286
 7188TIP3    H145017   3.011   7.384   1.249
 7188TIP3    H245018   3.159   7.403   1.278
 7189TIP3   OH245019   3.326   7.490   1.272
 7189TIP3    H145020   3.323   7.581   1.243
 7189TIP3    H245021   3.371   7.444   1.201
 7190TIP3   OH245022   2.114   7.340   1.013
 7190TIP3    H145023   2.096   7.304   1.100
 7190TIP3    H245024   2.200   7.306   0.990
 7191TIP3   OH245025   2.353   7.243   0.929
 7191TIP3    H145026   2.341   7.150   0.948
 7191TIP3    H245027   2.439   7.264   0.966
 7192TIP3   OH245028   2.604   7.266   1.049
 7192TIP3    H145029   2.614   7.177   1.017
 7192TIP3    H245030   2.638   7.264   1.138
 7193TIP3   OH245031   2.885   5.846   0.900
 7193TIP3    H145032   2.835   5.771   0.932
 7193TIP3    H245033   2.970   5.810   0.876
 7194TIP3   OH245034   3.426   5.686   0.884
 7194TIP3    H145035   3.497   5.739   0.847
 7194TIP3    H245036   3.362   5.750   0.915
 7195TIP3   OH245037   3.617   5.807   0.728
 7195TIP3    H145038   3.678   5.738   0.704
 7195TIP3    H245039   3.673   5.881   0.751
 7196TIP3   OH245040   2.160   5.711   0.674
 7196TIP3    H145041   2.069   5.687   0.656
 7196TIP3    H245042   2.208   5.629   0.669
 7197TIP3   OH245043   1.992   5.768   0.193
 7197TIP3    H145044   2.080   5.799   0.172
 7197TIP3    H245045   1.975   5.799   0.281
 7198TIP3   OH245046   2.627   5.676   0.684
 7198TIP3    H145047   2.701   5.728   0.651
 7198TIP3    H245048   2.639   5.676   0.779
 7199TIP3   OH245049   3.135   5.757   0.819
 7199TIP3    H145050   3.193   5.749   0.743
 7199TIP3    H245051   3.115   5.667   0.844
 7200TIP3   OH245052   3.314   5.769   0.408
 7200TIP3    H145053   3.236   5.822   0.423
 7200TIP3    H245054   3.286   5.679   0.425
 7201TIP3   OH245055   2.016   7.271   0.361
 7201TIP3    H145056   1.946   7.283   0.297
 7201TIP3    H245057   2.055   7.358   0.371
 7202TIP3   OH245058   2.267   5.907   0.154
 7202TIP3    H145059   2.297   5.854   0.080
 7202TIP3    H245060   2.318   5.874   0.229
 7203TIP3   OH245061   2.732   5.959   0.347
 7203TIP3    H145062   2.770   5.890   0.400
 7203TIP3    H245063   2.744   6.039   0.399
 7204TIP3   OH245064   2.922   7.504   0.225
 7204TIP3    H145065   3.001   7.555   0.209
 7204TIP3    H245066   2.939   7.420   0.182
 7205TIP3   OH245067   3.565   7.374   0.478
 7205TIP3    H145068   3.549   7.284   0.449
 7205TIP3    H245069   3.566   7.426   0.398
 7206TIP3   OH245070   2.154   5.787   1.592
 7206TIP3    H145071   2.089   5.726   1.627
 7206TIP3    H245072   2.233   5.771   1.644
 7207TIP3   OH245073   2.353   5.698   1.753
 7207TIP3    H145074   2.444   5.672   1.740
 7207TIP3    H245075   2.322   5.641   1.824
 7208TIP3   OH245076   2.249   7.521   0.091
 7208TIP3    H145077   2.207   7.451   0.140
 7208TIP3    H245078   2.328   7.480   0.053
 7209TIP3   OH245079   3.210   5.683   1.810
 7209TIP3    H145080   3.190   5.639   1.893
 7209TIP3    H245081   3.302   5.661   1.793
 7210TIP3   OH245082   3.520   7.292   1.690
 7210TIP3    H145083   3.454   7.315   1.624
 7210TIP3    H245084   3.557   7.376   1.717
 7211TIP3   OH245085   4.971   6.672   0.667
 7211TIP3    H145086   4.956   6.766   0.673
 7211TIP3    H245087   4.895   6.638   0.619
 7212TIP3   OH245088   4.819   6.577   1.050
 7212TIP3    H145089   4.851   6.540   1.133
 7212TIP3    H245090   4.777   6.503   1.006
 7213TIP3   OH245091   4.042   6.537   1.209
 7213TIP3    H145092   4.047   6.445   1.235
 7213TIP3    H245093   4.104   6.582   1.268
 7214TIP3   OH245094   5.218   6.900   0.888
 7214TIP3    H145095   5.187   6.822   0.934
 7214TIP3    H245096   5.234   6.964   0.957
 7215TIP3   OH245097   4.197   6.974   0.968
 7215TIP3    H145098   4.165   6.886   0.949
 7215TIP3    H245099   4.281   6.960   1.012
 7216TIP3   OH245100   3.834   6.327   0.527
 7216TIP3    H145101   3.808   6.411   0.566
 7216TIP3    H245102   3.767   6.311   0.461
 7217TIP3   OH245103   3.900   6.579   0.831
 7217TIP3    H145104   3.927   6.489   0.848
 7217TIP3    H245105   3.979   6.631   0.843
 7218TIP3   OH245106   4.928   7.326   0.922
 7218TIP3    H145107   4.985   7.274   0.865
 7218TIP3    H245108   4.920   7.273   1.002
 7219TIP3   OH245109   4.689   6.823   1.078
 7219TIP3    H145110   4.720   6.737   1.049
 7219TIP3    H245111   4.760   6.858   1.131
 7220TIP3   OH245112   5.561   5.961   1.139
 7220TIP3    H145113   5.571   6.028   1.207
 7220TIP3    H245114   5.615   5.992   1.066
 7221TIP3   OH245115   5.036   6.255   1.090
 7221TIP3    H145116   5.052   6.162   1.107
 7221TIP3    H245117   5.003   6.258   1.000
 7222TIP3   OH245118   4.328   6.055   0.802
 7222TIP3    H145119   4.340   6.139   0.758
 7222TIP3    H245120   4.275   6.003   0.742
 7223TIP3   OH245121   5.117   6.117   0.667
 7223TIP3    H145122   5.168   6.080   0.740
 7223TIP3    H245123   5.183   6.153   0.608
 7224TIP3   OH245124   3.989   6.321   0.885
 7224TIP3    H145125   4.054   6.280   0.942
 7224TIP3    H245126   4.009   6.287   0.798
 7225TIP3   OH245127   4.479   6.454   0.828
 7225TIP3    H145128   4.561   6.416   0.860
 7225TIP3    H245129   4.439   6.385   0.775
 7226TIP3   OH245130   5.582   6.135   1.351
 7226TIP3    H145131   5.513   6.201   1.348
 7226TIP3    H245132   5.603   6.125   1.444
 7227TIP3   OH245133   4.220   5.987   1.233
 7227TIP3    H145134   4.187   6.049   1.167
 7227TIP3    H245135   4.156   5.991   1.303
 7228TIP3   OH245136   4.910   6.935   0.591
 7228TIP3    H145137   4.902   6.916   0.497
 7228TIP3    H245138   4.867   7.020   0.601
 7229TIP3   OH245139   4.451   6.739   1.195
 7229TIP3    H145140   4.402   6.809   1.237
 7229TIP3    H245141   4.531   6.781   1.163
 7230TIP3   OH245142   5.270   6.044   0.881
 7230TIP3    H145143   5.211   6.015   0.949
 7230TIP3    H245144   5.337   6.095   0.927
 7231TIP3   OH245145   4.173   6.152   1.012
 7231TIP3    H145146   4.233   6.207   1.063
 7231TIP3    H245147   4.228   6.111   0.946
 7232TIP3   OH245148   4.302   6.945   1.304
 7232TIP3    H145149   4.305   7.040   1.304
 7232TIP3    H245150   4.217   6.924   1.343
 7233TIP3   OH245151   3.881   6.925   0.401
 7233TIP3    H145152   3.886   6.975   0.319
 7233TIP3    H245153   3.909   6.987   0.468
 7234TIP3   OH245154   5.247   7.117   1.073
 7234TIP3    H145155   5.152   7.120   1.088
 7234TIP3    H245156   5.273   7.209   1.066
 7235TIP3   OH245157   5.311   5.854   1.224
 7235TIP3    H145158   5.239   5.898   1.177
 7235TIP3    H245159   5.390   5.885   1.180
 7236TIP3   OH245160   4.553   5.656   0.987
 7236TIP3    H145161   4.524   5.565   0.998
 7236TIP3    H245162   4.477   5.709   1.012
 7237TIP3   OH245163   5.079   7.208   0.725
 7237TIP3    H145164   5.111   7.119   0.707
 7237TIP3    H245165   5.157   7.263   0.716
 7238TIP3   OH245166   5.235   7.001   0.634
 7238TIP3    H145167   5.238   6.930   0.570
 7238TIP3    H245168   5.235   6.956   0.719
 7239TIP3   OH245169   5.378   6.881   1.454
 7239TIP3    H145170   5.361   6.817   1.386
 7239TIP3    H245171   5.389   6.964   1.408
 7240TIP3   OH245172   4.802   6.600   0.455
 7240TIP3    H145173   4.738   6.664   0.425
 7240TIP3    H245174   4.873   6.606   0.391
 7241TIP3   OH245175   4.858   6.451   0.134
 7241TIP3    H145176   4.908   6.496   0.201
 7241TIP3    H245177   4.922   6.401   0.084
 7242TIP3   OH245178   5.550   6.552   1.279
 7242TIP3    H145179   5.477   6.612   1.269
 7242TIP3    H245180   5.603   6.565   1.201
 7243TIP3   OH245181   5.194   6.609   0.526
 7243TIP3    H145182   5.123   6.626   0.588
 7243TIP3    H245183   5.255   6.553   0.574
 7244TIP3   OH245184   5.152   6.419   1.447
 7244TIP3    H145185   5.160   6.476   1.523
 7244TIP3    H245186   5.083   6.458   1.395
 7245TIP3   OH245187   4.327   6.649   0.703
 7245TIP3    H145188   4.306   6.612   0.617
 7245TIP3    H245189   4.383   6.583   0.744
 7246TIP3   OH245190   4.495   6.997   0.975
 7246TIP3    H145191   4.498   6.985   0.880
 7246TIP3    H245192   4.563   6.939   1.008
 7247TIP3   OH245193   4.330   6.547   1.041
 7247TIP3    H145194   4.393   6.526   0.972
 7247TIP3    H245195   4.376   6.610   1.096
 7248TIP3   OH245196   4.976   7.116   1.127
 7248TIP3    H145197   4.966   7.177   1.200
 7248TIP3    H245198   4.954   7.030   1.165
 7249TIP3   OH245199   4.458   7.018   1.549
 7249TIP3    H145200   4.384   7.060   1.593
 7249TIP3    H245201   4.418   6.963   1.482
 7250TIP3   OH245202   5.034   6.586   0.303
 7250TIP3    H145203   5.091   6.598   0.379
 7250TIP3    H245204   5.088   6.610   0.228
 7251TIP3   OH245205   4.149   6.618   1.467
 7251TIP3    H145206   4.174   6.677   1.538
 7251TIP3    H245207   4.058   6.593   1.488
 7252TIP3   OH245208   4.819   7.217   0.625
 7252TIP3    H145209   4.895   7.213   0.682
 7252TIP3    H245210   4.745   7.199   0.683
 7253TIP3   OH245211   4.242   7.175   1.622
 7253TIP3    H145212   4.232   7.185   1.528
 7253TIP3    H245213   4.154   7.154   1.653
 7254TIP3   OH245214   5.461   5.683   0.282
 7254TIP3    H145215   5.374   5.714   0.306
 7254TIP3    H245216   5.503   5.757   0.238
 7255TIP3   OH245217   4.251   6.563   0.441
 7255TIP3    H145218   4.189   6.627   0.406
 7255TIP3    H245219   4.202   6.481   0.442
 7256TIP3   OH245220   5.549   7.136   0.155
 7256TIP3    H145221   5.593   7.221   0.152
 7256TIP3    H245222   5.619   7.072   0.136
 7257TIP3   OH245223   3.852   6.788   1.366
 7257TIP3    H145224   3.841   6.766   1.273
 7257TIP3    H245225   3.863   6.704   1.409
 7258TIP3   OH245226   3.826   7.079   1.044
 7258TIP3    H145227   3.911   7.038   1.029
 7258TIP3    H245228   3.834   7.119   1.130
 7259TIP3   OH245229   5.620   7.173   1.625
 7259TIP3    H145230   5.612   7.080   1.642
 7259TIP3    H245231   5.540   7.211   1.663
 7260TIP3   OH245232   4.716   7.099   1.507
 7260TIP3    H145233   4.735   7.172   1.565
 7260TIP3    H245234   4.631   7.065   1.537
 7261TIP3   OH245235   4.796   7.502   0.503
 7261TIP3    H145236   4.768   7.414   0.528
 7261TIP3    H245237   4.737   7.560   0.550
 7262TIP3   OH245238   4.153   7.310   0.674
 7262TIP3    H145239   4.176   7.285   0.763
 7262TIP3    H245240   4.096   7.239   0.644
 7263TIP3   OH245241   5.146   7.379   0.212
 7263TIP3    H145242   5.163   7.321   0.137
 7263TIP3    H245243   5.127   7.319   0.284
 7264TIP3   OH245244   5.025   7.297   0.449
 7264TIP3    H145245   4.949   7.250   0.484
 7264TIP3    H245246   5.095   7.279   0.511
 7265TIP3   OH245247   5.364   6.278   1.677
 7265TIP3    H145248   5.282   6.326   1.670
 7265TIP3    H245249   5.347   6.193   1.637
 7266TIP3   OH245250   4.060   6.959   1.441
 7266TIP3    H145251   4.093   6.924   1.523
 7266TIP3    H245252   3.987   6.901   1.418
 7267TIP3   OH245253   4.315   5.789   1.061
 7267TIP3    H145254   4.236   5.783   1.009
 7267TIP3    H245255   4.300   5.862   1.121
 7268TIP3   OH245256   4.798   5.762   1.391
 7268TIP3    H145257   4.844   5.718   1.463
 7268TIP3    H245258   4.706   5.760   1.417
 7269TIP3   OH245259   5.086   6.149   1.463
 7269TIP3    H145260   5.022   6.136   1.532
 7269TIP3    H245261   5.099   6.244   1.460
 7270TIP3   OH245262   5.196   6.627   0.090
 7270TIP3    H145263   5.232   6.545   0.056
 7270TIP3    H245264   5.261   6.693   0.064
 7271TIP3   OH245265   4.751   5.981   0.082
 7271TIP3    H145266   4.695   5.987   0.160
 7271TIP3    H245267   4.812   5.911   0.101
 7272TIP3   OH245268   4.349   6.302   1.162
 7272TIP3    H145269   4.337   6.325   1.254
 7272TIP3    H245270   4.340   6.386   1.116
 7273TIP3   OH245271   4.327   6.290   0.661
 7273TIP3    H145272   4.231   6.280   0.657
 7273TIP3    H245273   4.356   6.273   0.571
 7274TIP3   OH245274   4.869   6.347   0.552
 7274TIP3    H145275   4.840   6.432   0.520
 7274TIP3    H245276   4.944   6.325   0.498
 7275TIP3   OH245277   4.799   6.356   1.694
 7275TIP3    H145278   4.739   6.286   1.719
 7275TIP3    H245279   4.875   6.344   1.750
 7276TIP3   OH245280   4.971   6.296   0.824
 7276TIP3    H145281   4.935   6.358   0.761
 7276TIP3    H245282   5.011   6.228   0.770
 7277TIP3   OH245283   4.075   6.285   1.325
 7277TIP3    H145284   4.153   6.315   1.372
 7277TIP3    H245285   4.057   6.198   1.361
 7278TIP3   OH245286   4.369   6.040   0.106
 7278TIP3    H145287   4.381   6.004   0.193
 7278TIP3    H245288   4.386   6.134   0.117
 7279TIP3   OH245289   3.790   6.012   0.765
 7279TIP3    H145290   3.828   6.019   0.852
 7279TIP3    H245291   3.862   6.032   0.705
 7280TIP3   OH245292   3.833   6.115   0.252
 7280TIP3    H145293   3.902   6.150   0.196
 7280TIP3    H245294   3.780   6.191   0.277
 7281TIP3   OH245295   4.928   6.438   1.265
 7281TIP3    H145296   4.973   6.373   1.211
 7281TIP3    H245297   4.869   6.386   1.320
 7282TIP3   OH245298   4.610   6.024   0.749
 7282TIP3    H145299   4.522   6.027   0.787
 7282TIP3    H245300   4.662   5.974   0.811
 7283TIP3   OH245301   4.061   6.216   0.640
 7283TIP3    H145302   3.985   6.241   0.587
 7283TIP3    H245303   4.081   6.126   0.612
 7284TIP3   OH245304   4.401   6.227   0.404
 7284TIP3    H145305   4.494   6.223   0.427
 7284TIP3    H245306   4.400   6.266   0.317
 7285TIP3   OH245307   5.089   5.957   1.065
 7285TIP3    H145308   5.029   5.959   1.140
 7285TIP3    H245309   5.049   5.895   1.005
 7286TIP3   OH245310   4.380   6.319   0.138
 7286TIP3    H145311   4.320   6.328   0.065
 7286TIP3    H245312   4.459   6.366   0.111
 7287TIP3   OH245313   5.329   7.567   1.735
 7287TIP3    H145314   5.403   7.590   1.679
 7287TIP3    H245315   5.344   7.617   1.816
 7288TIP3   OH245316   4.167   6.818   1.674
 7288TIP3    H145317   4.233   6.816   1.744
 7288TIP3    H245318   4.083   6.815   1.720
 7289TIP3   OH245319   4.705   6.336   0.945
 7289TIP3    H145320   4.783   6.296   0.908
 7289TIP3    H245321   4.682   6.280   1.019
 7290TIP3   OH245322   4.155   5.955   0.597
 7290TIP3    H145323   4.114   5.872   0.620
 7290TIP3    H245324   4.204   5.936   0.517
 7291TIP3   OH245325   4.616   6.207   1.182
 7291TIP3    H145326   4.532   6.253   1.181
 7291TIP3    H245327   4.662   6.241   1.258
 7292TIP3   OH245328   4.616   6.805   0.366
 7292TIP3    H145329   4.551   6.749   0.322
 7292TIP3    H245330   4.581   6.816   0.455
 7293TIP3   OH245331   5.353   6.733   1.219
 7293TIP3    H145332   5.411   6.790   1.168
 7293TIP3    H245333   5.279   6.716   1.161
 7294TIP3   OH245334   4.981   6.077   0.265
 7294TIP3    H145335   4.952   6.092   0.175
 7294TIP3    H245336   5.021   6.160   0.291
 7295TIP3   OH245337   4.812   6.842   1.483
 7295TIP3    H145338   4.752   6.787   1.533
 7295TIP3    H245339   4.779   6.931   1.497
 7296TIP3   OH245340   5.095   6.301   0.389
 7296TIP3    H145341   5.180   6.272   0.423
 7296TIP3    H245342   5.115   6.382   0.342
 7297TIP3   OH245343   4.142   6.703   0.903
 7297TIP3    H145344   4.202   6.693   0.829
 7297TIP3    H245345   4.178   6.647   0.972
 7298TIP3   OH245346   4.857   6.921   0.321
 7298TIP3    H145347   4.827   7.011   0.306
 7298TIP3    H245348   4.776   6.870   0.326
 7299TIP3   OH245349   3.875   6.562   1.518
 7299TIP3    H145350   3.911   6.541   1.604
 7299TIP3    H245351   3.811   6.492   1.501
 7300TIP3   OH245352   4.531   6.486   1.655
 7300TIP3    H145353   4.620   6.451   1.647
 7300TIP3    H245354   4.511   6.477   1.748
 7301TIP3   OH245355   5.000   7.115   1.458
 7301TIP3    H145356   4.905   7.099   1.460
 7301TIP3    H245357   5.027   7.109   1.550
 7302TIP3   OH245358   5.534   6.300   0.328
 7302TIP3    H145359   5.471   6.281   0.259
 7302TIP3    H245360   5.565   6.388   0.309
 7303TIP3   OH245361   5.602   6.875   1.611
 7303TIP3    H145362   5.512   6.886   1.580
 7303TIP3    H245363   5.654   6.871   1.531
 7304TIP3   OH245364   5.373   7.131   0.374
 7304TIP3    H145365   5.334   7.055   0.417
 7304TIP3    H245366   5.429   7.094   0.306
 7305TIP3   OH245367   5.143   6.667   1.035
 7305TIP3    H145368   5.049   6.650   1.035
 7305TIP3    H245369   5.181   6.589   0.995
 7306TIP3   OH245370   4.407   7.083   0.688
 7306TIP3    H145371   4.416   7.165   0.640
 7306TIP3    H245372   4.314   7.079   0.710
 7307TIP3   OH245373   3.980   6.555   0.143
 7307TIP3    H145374   4.016   6.611   0.212
 7307TIP3    H245375   3.886   6.552   0.162
 7308TIP3   OH245376   4.503   6.841   0.607
 7308TIP3    H145377   4.472   6.926   0.638
 7308TIP3    H245378   4.446   6.778   0.652
 7309TIP3   OH245379   4.583   7.247   1.315
 7309TIP3    H145380   4.603   7.332   1.354
 7309TIP3    H245381   4.636   7.184   1.364
 7310TIP3   OH245382   4.403   7.341   0.561
 7310TIP3    H145383   4.311   7.342   0.588
 7310TIP3    H245384   4.443   7.412   0.612
 7311TIP3   OH245385   4.917   6.862   1.234
 7311TIP3    H145386   4.879   6.852   1.322
 7311TIP3    H245387   4.988   6.797   1.232
 7312TIP3   OH245388   5.112   6.956   0.233
 7312TIP3    H145389   5.177   6.913   0.289
 7312TIP3    H245390   5.028   6.933   0.271
 7313TIP3   OH245391   5.220   7.278   1.456
 7313TIP3    H145392   5.139   7.228   1.447
 7313TIP3    H245393   5.211   7.350   1.394
 7314TIP3   OH245394   5.617   7.413   0.118
 7314TIP3    H145395   5.608   7.395   0.024
 7314TIP3    H245396   5.533   7.451   0.144
 7315TIP3   OH245397   4.033   6.022   1.438
 7315TIP3    H145398   3.963   6.064   1.487
 7315TIP3    H245399   4.049   5.940   1.485
 7316TIP3   OH245400   5.289   6.836   0.408
 7316TIP3    H145401   5.250   6.757   0.444
 7316TIP3    H245402   5.382   6.814   0.396
 7317TIP3   OH245403   3.974   7.196   1.271
 7317TIP3    H145404   4.008   7.124   1.323
 7317TIP3    H245405   3.983   7.273   1.327
 7318TIP3   OH245406   4.430   7.042   0.282
 7318TIP3    H145407   4.498   6.982   0.312
 7318TIP3    H245408   4.469   7.129   0.294
 7319TIP3   OH245409   4.078   6.746   0.318
 7319TIP3    H145410   4.007   6.791   0.364
 7319TIP3    H245411   4.127   6.816   0.275
 7320TIP3   OH245412   4.945   5.978   1.290
 7320TIP3    H145413   4.987   6.029   1.359
 7320TIP3    H245414   4.892   5.913   1.336
 7321TIP3   OH245415   4.951   5.957   0.508
 7321TIP3    H145416   4.958   5.996   0.421
 7321TIP3    H245417   5.002   6.015   0.565
 7322TIP3   OH245418   4.769   7.175   0.290
 7322TIP3    H145419   4.684   7.215   0.307
 7322TIP3    H245420   4.820   7.245   0.248
 7323TIP3   OH245421   4.649   6.179   0.519
 7323TIP3    H145422   4.726   6.235   0.532
 7323TIP3    H245423   4.639   6.133   0.603
 7324TIP3   OH245424   4.775   6.266   1.424
 7324TIP3    H145425   4.777   6.311   1.508
 7324TIP3    H245426   4.798   6.175   1.444
 7325TIP3   OH245427   4.717   5.834   0.570
 7325TIP3    H145428   4.683   5.895   0.635
 7325TIP3    H245429   4.805   5.867   0.550
 7326TIP3   OH245430   4.530   7.302   0.321
 7326TIP3    H145431   4.523   7.383   0.270
 7326TIP3    H245432   4.482   7.320   0.402
 7327TIP3   OH245433   4.334   5.960   0.376
 7327TIP3    H145434   4.345   6.053   0.395
 7327TIP3    H245435   4.424   5.925   0.374
 7328TIP3   OH245436   5.335   6.047   1.497
 7328TIP3    H145437   5.243   6.071   1.486
 7328TIP3    H245438   5.365   6.028   1.408
 7329TIP3   OH245439   5.233   6.422   0.920
 7329TIP3    H145440   5.147   6.379   0.921
 7329TIP3    H245441   5.289   6.364   0.972
 7330TIP3   OH245442   4.185   6.969   0.178
 7330TIP3    H145443   4.252   7.012   0.231
 7330TIP3    H245444   4.234   6.918   0.114
 7331TIP3   OH245445   3.989   6.278   0.081
 7331TIP3    H145446   3.999   6.371   0.103
 7331TIP3    H245447   4.004   6.275  -0.014
 7332TIP3   OH245448   5.355   7.385   1.066
 7332TIP3    H145449   5.335   7.438   0.989
 7332TIP3    H245450   5.448   7.399   1.082
 7333TIP3   OH245451   4.058   5.764   0.954
 7333TIP3    H145452   4.052   5.752   0.859
 7333TIP3    H245453   4.033   5.679   0.990
 7334TIP3   OH245454   3.951   7.136   0.578
 7334TIP3    H145455   3.898   7.166   0.652
 7334TIP3    H245456   3.931   7.196   0.507
 7335TIP3   OH245457   3.901   7.396   1.767
 7335TIP3    H145458   3.948   7.392   1.850
 7335TIP3    H245459   3.911   7.308   1.729
 7336TIP3   OH245460   4.401   7.301   1.806
 7336TIP3    H145461   4.456   7.234   1.848
 7336TIP3    H245462   4.344   7.251   1.748
 7337TIP3   OH245463   4.937   7.229   0.044
 7337TIP3    H145464   4.860   7.173   0.040
 7337TIP3    H245465   4.944   7.268  -0.043
 7338TIP3   OH245466   5.068   7.113   1.721
 7338TIP3    H145467   5.006   7.053   1.762
 7338TIP3    H245468   5.127   7.139   1.792
 7339TIP3   OH245469   5.277   7.176   0.030
 7339TIP3    H145470   5.340   7.156   0.099
 7339TIP3    H245471   5.328   7.169  -0.051
 7340TIP3   OH245472   3.908   6.821   1.778
 7340TIP3    H145473   3.906   6.751   1.843
 7340TIP3    H245474   3.831   6.807   1.724
 7341TIP3   OH245475   4.351   6.803   0.035
 7341TIP3    H145476   4.387   6.760   0.113
 7341TIP3    H245477   4.377   6.745  -0.037
 7342TIP3   OH245478   4.577   6.754   1.600
 7342TIP3    H145479   4.523   6.817   1.647
 7342TIP3    H245480   4.556   6.670   1.641
 7343TIP3   OH245481   5.116   6.778   1.515
 7343TIP3    H145482   5.185   6.845   1.509
 7343TIP3    H245483   5.035   6.829   1.522
 7344TIP3   OH245484   3.999   6.500   1.754
 7344TIP3    H145485   4.073   6.442   1.766
 7344TIP3    H245486   3.981   6.536   1.840
 7345TIP3   OH245487   4.438   6.639   0.239
 7345TIP3    H145488   4.387   6.594   0.306
 7345TIP3    H245489   4.485   6.569   0.194
 7346TIP3   OH245490   4.323   6.404   1.417
 7346TIP3    H145491   4.269   6.476   1.450
 7346TIP3    H245492   4.411   6.441   1.409
 7347TIP3   OH245493   4.594   6.471   0.064
 7347TIP3    H145494   4.605   6.463  -0.031
 7347TIP3    H245495   4.682   6.463   0.099
 7348TIP3   OH245496   4.887   6.660   1.790
 7348TIP3    H145497   4.875   6.566   1.776
 7348TIP3    H245498   4.817   6.684   1.852
 7349TIP3   OH245499   5.395   6.805   0.008
 7349TIP3    H145500   5.464   6.739   0.004
 7349TIP3    H245501   5.418   6.868  -0.061
 7350TIP3   OH245502   4.411   6.178   1.563
 7350TIP3    H145503   4.436   6.115   1.494
 7350TIP3    H245504   4.396   6.260   1.516
 7351TIP3   OH245505   4.473   6.010   1.339
 7351TIP3    H145506   4.530   6.054   1.276
 7351TIP3    H245507   4.388   6.008   1.296
 7352TIP3   OH245508   4.557   6.527   1.340
 7352TIP3    H145509   4.614   6.562   1.408
 7352TIP3    H245510   4.524   6.604   1.294
 7353TIP3   OH245511   5.006   6.306   1.887
 7353TIP3    H145512   5.028   6.232   1.944
 7353TIP3    H245513   5.041   6.383   1.933
 7354TIP3   OH245514   5.210   6.573   1.670
 7354TIP3    H145515   5.165   6.648   1.630
 7354TIP3    H245516   5.303   6.594   1.661
 7355TIP3   OH245517   4.225   6.265   1.758
 7355TIP3    H145518   4.165   6.191   1.749
 7355TIP3    H245519   4.295   6.247   1.695
 7356TIP3   OH245520   4.520   5.743   1.410
 7356TIP3    H145521   4.501   5.835   1.389
 7356TIP3    H245522   4.450   5.694   1.366
 7357TIP3   OH245523   4.638   6.133   1.722
 7357TIP3    H145524   4.615   6.092   1.805
 7357TIP3    H245525   4.555   6.146   1.677
 7358TIP3   OH245526   4.892   6.062   1.629
 7358TIP3    H145527   4.807   6.079   1.670
 7358TIP3    H245528   4.941   6.014   1.696
 7359TIP3   OH245529   5.038   5.901   1.817
 7359TIP3    H145530   5.029   5.807   1.807
 7359TIP3    H245531   4.963   5.928   1.870
 7360TIP3   OH245532   4.057   6.039   1.757
 7360TIP3    H145533   4.059   5.955   1.712
 7360TIP3    H245534   4.082   6.018   1.847
 7361TIP3   OH245535   4.490   5.669   1.676
 7361TIP3    H145536   4.546   5.591   1.681
 7361TIP3    H245537   4.498   5.698   1.586
 7362TIP3   OH245538   4.553   5.846   1.884
 7362TIP3    H145539   4.531   5.794   1.807
 7362TIP3    H245540   4.489   5.918   1.884
 7363TIP3   OH245541   4.554   7.529   0.147
 7363TIP3    H145542   4.511   7.609   0.178
 7363TIP3    H245543   4.539   7.530   0.052
 7364TIP3   OH245544   3.914   6.986   0.103
 7364TIP3    H145545   4.006   6.987   0.130
 7364TIP3    H245546   3.915   6.953   0.014
 7365TIP3   OH245547   3.780   7.454   0.634
 7365TIP3    H145548   3.715   7.422   0.571
 7365TIP3    H245549   3.793   7.380   0.693
 7366TIP3   OH245550   3.842   7.252   0.812
 7366TIP3    H145551   3.793   7.187   0.862
 7366TIP3    H245552   3.902   7.291   0.875
 7367TIP3   OH245553   5.620   7.490   1.051
 7367TIP3    H145554   5.622   7.537   1.135
 7367TIP3    H245555   5.701   7.439   1.051
 7368TIP3   OH245556   5.571   7.311   1.386
 7368TIP3    H145557   5.521   7.239   1.347
 7368TIP3    H245558   5.607   7.274   1.466
 7369TIP3   OH245559   5.422   6.960   1.932
 7369TIP3    H145560   5.326   6.966   1.934
 7369TIP3    H245561   5.451   7.044   1.969
 7370TIP3   OH245562   5.553   6.757   0.409
 7370TIP3    H145563   5.630   6.814   0.410
 7370TIP3    H245564   5.567   6.698   0.484
 7371TIP3   OH245565   5.595   6.577   0.616
 7371TIP3    H145566   5.513   6.538   0.647
 7371TIP3    H245567   5.648   6.587   0.696
 7372TIP3   OH245568   5.583   6.858   1.124
 7372TIP3    H145569   5.637   6.785   1.094
 7372TIP3    H245570   5.627   6.936   1.090
 7373TIP3   OH245571   5.390   7.114   1.313
 7373TIP3    H145572   5.330   7.167   1.366
 7373TIP3    H245573   5.346   7.103   1.229
 7374TIP3   OH245574   5.607   6.546   0.236
 7374TIP3    H145575   5.587   6.565   0.144
 7374TIP3    H245576   5.574   6.623   0.283
 7375TIP3   OH245577   5.376   6.298   0.099
 7375TIP3    H145578   5.448   6.314   0.038
 7375TIP3    H245579   5.359   6.204   0.091
 7376TIP3   OH245580   5.358   6.441   0.674
 7376TIP3    H145581   5.353   6.351   0.643
 7376TIP3    H245582   5.319   6.439   0.762
 7377TIP3   OH245583   3.834   6.662   1.091
 7377TIP3    H145584   3.838   6.636   0.999
 7377TIP3    H245585   3.911   6.622   1.130
 7378TIP3   OH245586   5.482   6.618   1.651
 7378TIP3    H145587   5.538   6.541   1.643
 7378TIP3    H245588   5.534   6.689   1.614
 7379TIP3   OH245589   5.624   6.368   1.653
 7379TIP3    H145590   5.532   6.344   1.669
 7379TIP3    H245591   5.668   6.284   1.643
 7380TIP3   OH245592   5.352   6.034   0.068
 7380TIP3    H145593   5.417   5.967   0.090
 7380TIP3    H245594   5.289   5.989   0.013
 7381TIP3   OH245595   5.337   6.201   0.508
 7381TIP3    H145596   5.358   6.108   0.515
 7381TIP3    H245597   5.408   6.238   0.455
 7382TIP3   OH245598   5.403   6.249   1.055
 7382TIP3    H145599   5.496   6.268   1.048
 7382TIP3    H245600   5.383   6.265   1.148
 7383TIP3   OH245601   5.389   6.329   1.324
 7383TIP3    H145602   5.308   6.354   1.368
 7383TIP3    H245603   5.440   6.410   1.319
 7384TIP3   OH245604   3.837   6.124   1.613
 7384TIP3    H145605   3.908   6.121   1.677
 7384TIP3    H245606   3.782   6.049   1.634
 7385TIP3   OH245607   5.672   5.785   1.869
 7385TIP3    H145608   5.704   5.702   1.833
 7385TIP3    H245609   5.634   5.830   1.794
 7386TIP3   OH245610   5.400   5.932   0.512
 7386TIP3    H145611   5.417   5.886   0.594
 7386TIP3    H245612   5.337   5.876   0.466
 7387TIP3   OH245613   3.925   6.003   1.006
 7387TIP3    H145614   3.965   5.917   1.001
 7387TIP3    H245615   3.998   6.063   1.018
 7388TIP3   OH245616   3.771   6.303   1.060
 7388TIP3    H145617   3.839   6.306   0.993
 7388TIP3    H245618   3.819   6.314   1.143
 7389TIP3   OH245619   5.540   5.917   1.670
 7389TIP3    H145620   5.462   5.955   1.710
 7389TIP3    H245621   5.508   5.877   1.589
 7390TIP3   OH245622   5.587   5.891   0.141
 7390TIP3    H145623   5.614   5.884   0.050
 7390TIP3    H245624   5.640   5.963   0.177
 7391TIP3   OH245625   3.799   5.906   0.435
 7391TIP3    H145626   3.713   5.926   0.472
 7391TIP3    H245627   3.821   5.984   0.383
 7392TIP3   OH245628   5.265   7.402   0.620
 7392TIP3    H145629   5.346   7.358   0.594
 7392TIP3    H245630   5.287   7.446   0.702
 7393TIP3   OH245631   3.800   5.754   1.279
 7393TIP3    H145632   3.740   5.745   1.353
 7393TIP3    H245633   3.761   5.822   1.225
 7394TIP3   OH245634   3.990   7.131   1.725
 7394TIP3    H145635   3.906   7.114   1.682
 7394TIP3    H245636   3.988   7.077   1.804
 7395TIP3   OH245637   4.308   7.216   1.347
 7395TIP3    H145638   4.286   7.304   1.317
 7395TIP3    H245639   4.404   7.214   1.349
 7396TIP3   OH245640   4.781   7.332   1.634
 7396TIP3    H145641   4.781   7.307   1.726
 7396TIP3    H245642   4.871   7.359   1.617
 7397TIP3   OH245643   5.026   7.460   1.571
 7397TIP3    H145644   5.104   7.413   1.543
 7397TIP3    H245645   5.038   7.472   1.665
 7398TIP3   OH245646   5.455   5.731   1.467
 7398TIP3    H145647   5.386   5.758   1.406
 7398TIP3    H245648   5.469   5.639   1.447
 7399TIP3   OH245649   4.007   7.474   1.366
 7399TIP3    H145650   3.925   7.507   1.328
 7399TIP3    H245651   4.012   7.516   1.452
 7400TIP3   OH245652   4.266   7.478   1.277
 7400TIP3    H145653   4.175   7.480   1.308
 7400TIP3    H245654   4.269   7.542   1.207
 7401TIP3   OH245655   4.755   7.549   1.176
 7401TIP3    H145656   4.701   7.499   1.115
 7401TIP3    H245657   4.772   7.489   1.248
 7402TIP3   OH245658   4.965   7.373   1.236
 7402TIP3    H145659   4.933   7.440   1.176
 7402TIP3    H245660   5.047   7.409   1.270
 7403TIP3   OH245661   5.209   7.490   1.280
 7403TIP3    H145662   5.229   7.583   1.291
 7403TIP3    H245663   5.267   7.461   1.209
 7404TIP3   OH245664   3.996   7.340   1.034
 7404TIP3    H145665   3.987   7.295   1.118
 7404TIP3    H245666   4.081   7.313   1.001
 7405TIP3   OH245667   4.229   7.241   0.929
 7405TIP3    H145668   4.215   7.148   0.944
 7405TIP3    H245669   4.313   7.260   0.972
 7406TIP3   OH245670   4.479   7.258   1.059
 7406TIP3    H145671   4.491   7.168   1.027
 7406TIP3    H245672   4.513   7.255   1.149
 7407TIP3   OH245673   4.747   5.831   0.883
 7407TIP3    H145674   4.696   5.764   0.928
 7407TIP3    H245675   4.837   5.798   0.885
 7408TIP3   OH245676   5.311   5.693   0.909
 7408TIP3    H145677   5.374   5.746   0.860
 7408TIP3    H245678   5.230   5.743   0.907
 7409TIP3   OH245679   5.493   5.796   0.734
 7409TIP3    H145680   5.561   5.733   0.710
 7409TIP3    H245681   5.541   5.876   0.758
 7410TIP3   OH245682   4.035   5.715   0.680
 7410TIP3    H145683   3.945   5.694   0.657
 7410TIP3    H245684   4.082   5.632   0.669
 7411TIP3   OH245685   3.935   5.710   0.290
 7411TIP3    H145686   3.988   5.769   0.236
 7411TIP3    H245687   3.887   5.769   0.348
 7412TIP3   OH245688   4.519   5.668   0.695
 7412TIP3    H145689   4.588   5.721   0.654
 7412TIP3    H245690   4.538   5.673   0.789
 7413TIP3   OH245691   5.034   5.769   0.859
 7413TIP3    H145692   5.046   5.782   0.765
 7413TIP3    H245693   5.011   5.676   0.868
 7414TIP3   OH245694   5.215   5.765   0.385
 7414TIP3    H145695   5.146   5.819   0.346
 7414TIP3    H245696   5.170   5.684   0.410
 7415TIP3   OH245697   3.905   7.301   0.369
 7415TIP3    H145698   3.837   7.310   0.302
 7415TIP3    H245699   3.962   7.377   0.354
 7416TIP3   OH245700   4.103   5.853   0.124
 7416TIP3    H145701   4.163   5.785   0.093
 7416TIP3    H245702   4.158   5.928   0.145
 7417TIP3   OH245703   4.617   5.967   0.342
 7417TIP3    H145704   4.653   5.898   0.397
 7417TIP3    H245705   4.638   6.049   0.388
 7418TIP3   OH245706   4.822   7.458   0.178
 7418TIP3    H145707   4.844   7.398   0.106
 7418TIP3    H245708   4.730   7.480   0.164
 7419TIP3   OH245709   5.483   7.374   0.412
 7419TIP3    H145710   5.446   7.285   0.406
 7419TIP3    H245711   5.439   7.422   0.342
 7420TIP3   OH245712   4.044   5.779   1.623
 7420TIP3    H145713   3.981   5.711   1.646
 7420TIP3    H245714   4.121   5.760   1.677
 7421TIP3   OH245715   4.233   5.708   1.813
 7421TIP3    H145716   4.319   5.679   1.784
 7421TIP3    H245717   4.194   5.631   1.853
 7422TIP3   OH245718   4.174   7.403   0.086
 7422TIP3    H145719   4.117   7.466   0.129
 7422TIP3    H245720   4.127   7.320   0.093
 7423TIP3   OH245721   5.089   5.630   1.805
 7423TIP3    H145722   5.079   5.594   1.894
 7423TIP3    H245723   5.184   5.630   1.790
 7424TIP3   OH245724   5.391   7.302   1.702
 7424TIP3    H145725   5.324   7.264   1.645
 7424TIP3    H245726   5.376   7.396   1.697
 7425TIP3   OH245727   6.858   6.670   0.672
 7425TIP3    H145728   6.849   6.765   0.678
 7425TIP3    H245729   6.786   6.643   0.615
 7426TIP3   OH245730   6.669   6.585   1.036
 7426TIP3    H145731   6.712   6.565   1.119
 7426TIP3    H245732   6.650   6.500   0.997
 7427TIP3   OH245733   5.977   6.537   1.187
 7427TIP3    H145734   5.969   6.446   1.215
 7427TIP3    H245735   6.001   6.585   1.266
 7428TIP3   OH245736   7.123   6.896   0.877
 7428TIP3    H145737   7.087   6.819   0.921
 7428TIP3    H245738   7.132   6.961   0.948
 7429TIP3   OH245739   6.058   6.992   0.973
 7429TIP3    H145740   6.032   6.903   0.949
 7429TIP3    H245741   6.144   6.982   1.013
 7430TIP3   OH245742   5.711   6.327   0.545
 7430TIP3    H145743   5.684   6.416   0.569
 7430TIP3    H245744   5.649   6.301   0.477
 7431TIP3   OH245745   5.794   6.577   0.819
 7431TIP3    H145746   5.839   6.493   0.827
 7431TIP3    H245747   5.863   6.642   0.831
 7432TIP3   OH245748   6.813   7.384   0.904
 7432TIP3    H145749   6.852   7.298   0.887
 7432TIP3    H245750   6.775   7.377   0.991
 7433TIP3   OH245751   6.556   6.831   1.072
 7433TIP3    H145752   6.593   6.748   1.042
 7433TIP3    H245753   6.625   6.869   1.128
 7434TIP3   OH245754   7.415   6.014   1.153
 7434TIP3    H145755   7.417   6.045   1.244
 7434TIP3    H245756   7.446   6.089   1.102
 7435TIP3   OH245757   6.911   6.262   1.114
 7435TIP3    H145758   6.938   6.187   1.167
 7435TIP3    H245759   6.891   6.225   1.028
 7436TIP3   OH245760   6.213   6.054   0.793
 7436TIP3    H145761   6.212   6.131   0.736
 7436TIP3    H245762   6.164   5.987   0.744
 7437TIP3   OH245763   6.989   6.116   0.658
 7437TIP3    H145764   7.032   6.083   0.737
 7437TIP3    H245765   7.060   6.157   0.607
 7438TIP3   OH245766   5.944   6.340   0.870
 7438TIP3    H145767   5.964   6.274   0.937
 7438TIP3    H245768   5.916   6.288   0.794
 7439TIP3   OH245769   6.401   6.412   0.785
 7439TIP3    H145770   6.469   6.388   0.848
 7439TIP3    H245771   6.428   6.371   0.703
 7440TIP3   OH245772   7.417   6.111   1.407
 7440TIP3    H145773   7.361   6.188   1.394
 7440TIP3    H245774   7.463   6.128   1.489
 7441TIP3   OH245775   6.113   5.982   1.235
 7441TIP3    H145776   6.077   6.041   1.168
 7441TIP3    H245777   6.048   5.983   1.305
 7442TIP3   OH245778   6.825   6.934   0.580
 7442TIP3    H145779   6.805   6.927   0.487
 7442TIP3    H245780   6.771   7.007   0.611
 7443TIP3   OH245781   6.320   6.747   1.188
 7443TIP3    H145782   6.272   6.820   1.227
 7443TIP3    H245783   6.399   6.787   1.153
 7444TIP3   OH245784   7.114   6.058   0.890
 7444TIP3    H145785   7.055   6.019   0.955
 7444TIP3    H245786   7.170   6.117   0.941
 7445TIP3   OH245787   6.077   6.147   1.014
 7445TIP3    H145788   6.139   6.196   1.069
 7445TIP3    H245789   6.132   6.102   0.950
 7446TIP3   OH245790   6.191   6.961   1.297
 7446TIP3    H145791   6.204   7.056   1.305
 7446TIP3    H245792   6.105   6.945   1.337
 7447TIP3   OH245793   5.775   6.925   0.393
 7447TIP3    H145794   5.773   6.974   0.311
 7447TIP3    H245795   5.806   6.988   0.458
 7448TIP3   OH245796   7.129   7.078   1.089
 7448TIP3    H145797   7.033   7.079   1.096
 7448TIP3    H245798   7.153   7.170   1.079
 7449TIP3   OH245799   7.185   5.841   1.141
 7449TIP3    H145800   7.106   5.896   1.143
 7449TIP3    H245801   7.257   5.902   1.153
 7450TIP3   OH245802   6.445   5.668   0.975
 7450TIP3    H145803   6.423   5.575   0.986
 7450TIP3    H245804   6.367   5.714   1.005
 7451TIP3   OH245805   6.962   7.226   0.700
 7451TIP3    H145806   7.013   7.145   0.691
 7451TIP3    H245807   7.027   7.295   0.693
 7452TIP3   OH245808   7.093   6.994   0.624
 7452TIP3    H145809   7.005   6.961   0.606
 7452TIP3    H245810   7.117   6.954   0.708
 7453TIP3   OH245811   7.220   6.850   1.423
 7453TIP3    H145812   7.224   6.803   1.340
 7453TIP3    H245813   7.264   6.933   1.405
 7454TIP3   OH245814   6.703   6.597   0.452
 7454TIP3    H145815   6.634   6.660   0.429
 7454TIP3    H245816   6.765   6.602   0.379
 7455TIP3   OH245817   6.709   6.442   0.138
 7455TIP3    H145818   6.779   6.481   0.191
 7455TIP3    H245819   6.752   6.368   0.094
 7456TIP3   OH245820   7.401   6.509   1.244
 7456TIP3    H145821   7.339   6.580   1.231
 7456TIP3    H245822   7.470   6.525   1.179
 7457TIP3   OH245823   7.069   6.600   0.518
 7457TIP3    H145824   7.003   6.626   0.581
 7457TIP3    H245825   7.134   6.552   0.569
 7458TIP3   OH245826   6.995   6.406   1.431
 7458TIP3    H145827   7.010   6.462   1.507
 7458TIP3    H245828   6.931   6.454   1.378
 7459TIP3   OH245829   6.198   6.606   0.701
 7459TIP3    H145830   6.163   6.597   0.613
 7459TIP3    H245831   6.291   6.582   0.692
 7460TIP3   OH245832   6.355   7.001   0.970
 7460TIP3    H145833   6.368   7.013   0.876
 7460TIP3    H245834   6.430   6.949   0.999
 7461TIP3   OH245835   6.266   6.551   1.009
 7461TIP3    H145836   6.355   6.555   0.974
 7461TIP3    H245837   6.265   6.616   1.079
 7462TIP3   OH245838   6.855   7.075   1.107
 7462TIP3    H145839   6.839   7.151   1.163
 7462TIP3    H245840   6.822   7.001   1.159
 7463TIP3   OH245841   6.359   6.968   1.528
 7463TIP3    H145842   6.302   7.023   1.583
 7463TIP3    H245843   6.307   6.951   1.450
 7464TIP3   OH245844   6.931   6.547   0.287
 7464TIP3    H145845   6.978   6.570   0.368
 7464TIP3    H245846   6.981   6.590   0.218
 7465TIP3   OH245847   6.021   6.598   1.462
 7465TIP3    H145848   6.039   6.665   1.529
 7465TIP3    H245849   5.928   6.578   1.474
 7466TIP3   OH245850   6.693   7.173   0.637
 7466TIP3    H145851   6.770   7.204   0.685
 7466TIP3    H245852   6.659   7.252   0.595
 7467TIP3   OH245853   6.171   7.136   1.637
 7467TIP3    H145854   6.160   7.178   1.552
 7467TIP3    H245855   6.082   7.117   1.666
 7468TIP3   OH245856   7.293   5.682   0.272
 7468TIP3    H145857   7.209   5.708   0.309
 7468TIP3    H245858   7.329   5.762   0.234
 7469TIP3   OH245859   6.113   6.565   0.438
 7469TIP3    H145860   6.070   6.641   0.399
 7469TIP3    H245861   6.058   6.491   0.412
 7470TIP3   OH245862   7.398   7.155   0.083
 7470TIP3    H145863   7.421   7.225   0.022
 7470TIP3    H245864   7.475   7.098   0.084
 7471TIP3   OH245865   5.724   6.815   1.372
 7471TIP3    H145866   5.668   6.827   1.295
 7471TIP3    H245867   5.729   6.721   1.384
 7472TIP3   OH245868   5.765   7.058   1.045
 7472TIP3    H145869   5.854   7.037   1.016
 7472TIP3    H245870   5.778   7.107   1.126
 7473TIP3   OH245871   7.430   7.096   1.663
 7473TIP3    H145872   7.509   7.089   1.717
 7473TIP3    H245873   7.363   7.128   1.723
 7474TIP3   OH245874   6.598   7.096   1.496
 7474TIP3    H145875   6.605   7.166   1.561
 7474TIP3    H245876   6.514   7.054   1.514
 7475TIP3   OH245877   6.655   7.428   0.497
 7475TIP3    H145878   6.645   7.465   0.410
 7475TIP3    H245879   6.624   7.496   0.557
 7476TIP3   OH245880   6.025   7.335   0.666
 7476TIP3    H145881   6.056   7.314   0.754
 7476TIP3    H245882   5.975   7.258   0.639
 7477TIP3   OH245883   6.995   7.424   0.210
 7477TIP3    H145884   7.031   7.356   0.153
 7477TIP3    H245885   6.954   7.376   0.282
 7478TIP3   OH245886   6.901   7.320   0.439
 7478TIP3    H145887   6.813   7.350   0.462
 7478TIP3    H245888   6.929   7.270   0.515
 7479TIP3   OH245889   7.204   6.308   1.633
 7479TIP3    H145890   7.143   6.383   1.637
 7479TIP3    H245891   7.209   6.277   1.724
 7480TIP3   OH245892   5.955   6.952   1.430
 7480TIP3    H145893   5.979   6.923   1.518
 7480TIP3    H245894   5.872   6.907   1.411
 7481TIP3   OH245895   6.207   5.786   1.061
 7481TIP3    H145896   6.126   5.777   1.011
 7481TIP3    H245897   6.188   5.856   1.124
 7482TIP3   OH245898   6.702   5.755   1.408
 7482TIP3    H145899   6.756   5.714   1.476
 7482TIP3    H245900   6.612   5.745   1.440
 7483TIP3   OH245901   6.966   6.134   1.467
 7483TIP3    H145902   6.925   6.123   1.552
 7483TIP3    H245903   6.983   6.228   1.460
 7484TIP3   OH245904   7.090   6.678   0.104
 7484TIP3    H145905   7.168   6.680   0.049
 7484TIP3    H245906   7.113   6.733   0.179
 7485TIP3   OH245907   6.678   6.021   0.148
 7485TIP3    H145908   6.610   6.002   0.212
 7485TIP3    H245909   6.637   6.003   0.063
 7486TIP3   OH245910   6.243   6.316   1.154
 7486TIP3    H145911   6.222   6.329   1.247
 7486TIP3    H245912   6.252   6.404   1.119
 7487TIP3   OH245913   6.160   6.287   0.650
 7487TIP3    H145914   6.072   6.251   0.638
 7487TIP3    H245915   6.202   6.277   0.565
 7488TIP3   OH245916   6.762   6.347   0.550
 7488TIP3    H145917   6.740   6.434   0.519
 7488TIP3    H245918   6.830   6.315   0.491
 7489TIP3   OH245919   6.680   6.367   1.653
 7489TIP3    H145920   6.640   6.292   1.697
 7489TIP3    H245921   6.753   6.392   1.710
 7490TIP3   OH245922   6.844   6.290   0.824
 7490TIP3    H145923   6.814   6.354   0.761
 7490TIP3    H245924   6.881   6.220   0.771
 7491TIP3   OH245925   5.977   6.284   1.313
 7491TIP3    H145926   6.038   6.315   1.380
 7491TIP3    H245927   5.947   6.198   1.345
 7492TIP3   OH245928   6.292   6.046   0.089
 7492TIP3    H145929   6.271   6.007   0.174
 7492TIP3    H245930   6.283   6.140   0.103
 7493TIP3   OH245931   5.654   6.010   0.766
 7493TIP3    H145932   5.723   6.020   0.832
 7493TIP3    H245933   5.701   6.004   0.683
 7494TIP3   OH245934   5.732   6.105   0.258
 7494TIP3    H145935   5.804   6.147   0.210
 7494TIP3    H245936   5.670   6.176   0.276
 7495TIP3   OH245937   6.784   6.461   1.251
 7495TIP3    H145938   6.837   6.396   1.204
 7495TIP3    H245939   6.727   6.408   1.307
 7496TIP3   OH245940   6.493   6.069   0.766
 7496TIP3    H145941   6.403   6.050   0.794
 7496TIP3    H245942   6.546   6.000   0.806
 7497TIP3   OH245943   5.913   6.178   0.651
 7497TIP3    H145944   5.838   6.212   0.603
 7497TIP3    H245945   5.928   6.091   0.615
 7498TIP3   OH245946   6.281   6.236   0.414
 7498TIP3    H145947   6.375   6.234   0.433
 7498TIP3    H245948   6.275   6.268   0.325
 7499TIP3   OH245949   6.939   5.963   1.079
 7499TIP3    H145950   6.879   5.970   1.153
 7499TIP3    H245951   6.903   5.892   1.025
 7500TIP3   OH245952   6.239   6.312   0.153
 7500TIP3    H145953   6.155   6.317   0.109
 7500TIP3    H245954   6.297   6.369   0.102
 7501TIP3   OH245955   6.027   6.794   1.665
 7501TIP3    H145956   6.094   6.809   1.731
 7501TIP3    H245957   5.945   6.792   1.714
 7502TIP3   OH245958   6.597   6.330   0.955
 7502TIP3    H145959   6.680   6.297   0.921
 7502TIP3    H245960   6.573   6.268   1.024
 7503TIP3   OH245961   6.052   5.936   0.592
 7503TIP3    H145962   6.008   5.855   0.617
 7503TIP3    H245963   6.091   5.917   0.507
 7504TIP3   OH245964   6.493   6.190   1.174
 7504TIP3    H145965   6.412   6.240   1.177
 7504TIP3    H245966   6.543   6.221   1.249
 7505TIP3   OH245967   6.515   6.788   0.377
 7505TIP3    H145968   6.446   6.745   0.326
 7505TIP3    H245969   6.472   6.809   0.461
 7506TIP3   OH245970   7.255   6.728   1.180
 7506TIP3    H145971   7.312   6.776   1.120
 7506TIP3    H245972   7.173   6.718   1.132
 7507TIP3   OH245973   6.945   6.051   0.206
 7507TIP3    H145974   6.855   6.042   0.175
 7507TIP3    H245975   6.949   6.139   0.244
 7508TIP3   OH245976   6.635   6.782   1.482
 7508TIP3    H145977   6.698   6.749   1.546
 7508TIP3    H245978   6.620   6.873   1.508
 7509TIP3   OH245979   6.966   6.279   0.364
 7509TIP3    H145980   7.051   6.269   0.408
 7509TIP3    H245981   6.968   6.368   0.329
 7510TIP3   OH245982   6.026   6.714   0.906
 7510TIP3    H145983   6.097   6.694   0.846
 7510TIP3    H245984   6.051   6.674   0.989
 7511TIP3   OH245985   6.753   6.915   0.308
 7511TIP3    H145986   6.718   7.003   0.306
 7511TIP3    H245987   6.678   6.858   0.324
 7512TIP3   OH245988   5.746   6.542   1.470
 7512TIP3    H145989   5.724   6.482   1.541
 7512TIP3    H245990   5.677   6.529   1.405
 7513TIP3   OH245991   6.474   6.549   1.662
 7513TIP3    H145992   6.451   6.556   1.569
 7513TIP3    H245993   6.549   6.490   1.663
 7514TIP3   OH245994   6.874   7.048   1.500
 7514TIP3    H145995   6.784   7.073   1.478
 7514TIP3    H245996   6.889   7.083   1.587
 7515TIP3   OH245997   7.401   6.307   0.312
 7515TIP3    H145998   7.339   6.282   0.244
 7515TIP3    H245999   7.426   6.397   0.290
 7516TIP3   OH246000   7.486   6.840   1.588
 7516TIP3    H146001   7.453   6.925   1.617
 7516TIP3    H246002   7.534   6.858   1.508
 7517TIP3   OH246003   7.381   7.117   0.362
 7517TIP3    H146004   7.316   7.056   0.398
 7517TIP3    H246005   7.366   7.115   0.268
 7518TIP3   OH246006   7.032   6.677   1.024
 7518TIP3    H146007   6.938   6.677   1.042
 7518TIP3    H246008   7.049   6.592   0.984
 7519TIP3   OH246009   6.293   7.077   0.699
 7519TIP3    H146010   6.321   7.157   0.654
 7519TIP3    H246011   6.206   7.097   0.733
 7520TIP3   OH246012   5.881   6.505   0.255
 7520TIP3    H146013   5.910   6.596   0.253
 7520TIP3    H246014   5.785   6.511   0.252
 7521TIP3   OH246015   6.364   6.830   0.603
 7521TIP3    H146016   6.356   6.921   0.630
 7521TIP3    H246017   6.294   6.784   0.649
 7522TIP3   OH246018   6.487   7.259   1.297
 7522TIP3    H146019   6.533   7.343   1.298
 7522TIP3    H246020   6.542   7.201   1.349
 7523TIP3   OH246021   6.286   7.335   0.573
 7523TIP3    H146022   6.193   7.343   0.593
 7523TIP3    H246023   6.327   7.405   0.624
 7524TIP3   OH246024   6.778   6.846   1.253
 7524TIP3    H146025   6.721   6.821   1.326
 7524TIP3    H246026   6.867   6.828   1.284
 7525TIP3   OH246027   7.015   6.985   0.200
 7525TIP3    H146028   7.068   6.930   0.258
 7525TIP3    H246029   6.925   6.970   0.229
 7526TIP3   OH246030   6.997   7.358   1.466
 7526TIP3    H146031   7.045   7.281   1.499
 7526TIP3    H246032   7.063   7.407   1.417
 7527TIP3   OH246033   7.528   7.559   0.160
 7527TIP3    H146034   7.569   7.503   0.094
 7527TIP3    H246035   7.439   7.525   0.168
 7528TIP3   OH246036   5.914   6.023   1.424
 7528TIP3    H146037   5.837   6.063   1.465
 7528TIP3    H246038   5.930   5.944   1.475
 7529TIP3   OH246039   7.164   6.797   0.341
 7529TIP3    H146040   7.121   6.750   0.413
 7529TIP3    H246041   7.257   6.788   0.359
 7530TIP3   OH246042   5.872   7.200   1.263
 7530TIP3    H146043   5.905   7.132   1.321
 7530TIP3    H246044   5.861   7.277   1.320
 7531TIP3   OH246045   6.323   7.048   0.268
 7531TIP3    H146046   6.396   6.995   0.299
 7531TIP3    H246047   6.349   7.138   0.286
 7532TIP3   OH246048   5.978   6.763   0.301
 7532TIP3    H146049   5.901   6.802   0.342
 7532TIP3    H246050   6.025   6.838   0.262
 7533TIP3   OH246051   6.794   5.996   1.307
 7533TIP3    H146052   6.858   6.032   1.369
 7533TIP3    H246053   6.761   5.917   1.349
 7534TIP3   OH246054   6.866   5.952   0.470
 7534TIP3    H146055   6.882   5.996   0.387
 7534TIP3    H246056   6.900   6.012   0.537
 7535TIP3   OH246057   6.629   7.151   0.295
 7535TIP3    H146058   6.558   7.211   0.322
 7535TIP3    H246059   6.682   7.202   0.235
 7536TIP3   OH246060   6.531   6.200   0.531
 7536TIP3    H146061   6.614   6.247   0.537
 7536TIP3    H246062   6.523   6.154   0.614
 7537TIP3   OH246063   6.645   6.264   1.394
 7537TIP3    H146064   6.651   6.301   1.483
 7537TIP3    H246065   6.694   6.182   1.399
 7538TIP3   OH246066   6.637   5.833   0.573
 7538TIP3    H146067   6.642   5.847   0.668
 7538TIP3    H246068   6.717   5.871   0.539
 7539TIP3   OH246069   6.399   7.304   0.326
 7539TIP3    H146070   6.390   7.388   0.281
 7539TIP3    H246071   6.364   7.320   0.413
 7540TIP3   OH246072   6.222   5.969   0.351
 7540TIP3    H146073   6.221   6.060   0.381
 7540TIP3    H246074   6.313   5.942   0.360
 7541TIP3   OH246075   7.193   5.968   1.507
 7541TIP3    H146076   7.116   6.025   1.502
 7541TIP3    H246077   7.264   6.021   1.470
 7542TIP3   OH246078   7.083   6.424   0.916
 7542TIP3    H146079   6.995   6.385   0.910
 7542TIP3    H246080   7.131   6.366   0.975
 7543TIP3   OH246081   6.081   6.980   0.159
 7543TIP3    H146082   6.145   7.023   0.215
 7543TIP3    H246083   6.134   6.931   0.096
 7544TIP3   OH246084   5.925   6.268   0.125
 7544TIP3    H146085   5.914   6.347   0.178
 7544TIP3    H246086   5.920   6.299   0.034
 7545TIP3   OH246087   7.236   7.330   1.075
 7545TIP3    H146088   7.204   7.385   1.003
 7545TIP3    H246089   7.330   7.344   1.076
 7546TIP3   OH246090   5.953   5.757   0.954
 7546TIP3    H146091   5.946   5.743   0.859
 7546TIP3    H246092   5.924   5.674   0.992
 7547TIP3   OH246093   5.846   7.132   0.584
 7547TIP3    H146094   5.786   7.149   0.656
 7547TIP3    H246095   5.816   7.191   0.514
 7548TIP3   OH246096   5.778   7.400   1.688
 7548TIP3    H146097   5.837   7.370   1.757
 7548TIP3    H246098   5.732   7.321   1.660
 7549TIP3   OH246099   6.213   7.296   1.868
 7549TIP3    H146100   6.298   7.292   1.912
 7549TIP3    H246101   6.219   7.232   1.797
 7550TIP3   OH246102   6.763   7.271   0.083
 7550TIP3    H146103   6.701   7.230   0.023
 7550TIP3    H246104   6.842   7.283   0.030
 7551TIP3   OH246105   6.896   7.127   1.761
 7551TIP3    H146106   6.843   7.059   1.803
 7551TIP3    H246107   6.977   7.128   1.813
 7552TIP3   OH246108   7.118   7.214   0.087
 7552TIP3    H146109   7.079   7.135   0.125
 7552TIP3    H246110   7.210   7.192   0.075
 7553TIP3   OH246111   5.786   6.785   1.802
 7553TIP3    H146112   5.776   6.694   1.827
 7553TIP3    H246113   5.709   6.805   1.749
 7554TIP3   OH246114   6.253   6.809   0.030
 7554TIP3    H146115   6.283   6.764   0.109
 7554TIP3    H246116   6.257   6.743  -0.039
 7555TIP3   OH246117   6.433   6.813   1.745
 7555TIP3    H146118   6.412   6.850   1.659
 7555TIP3    H246119   6.455   6.721   1.726
 7556TIP3   OH246120   6.961   6.789   1.492
 7556TIP3    H146121   7.055   6.799   1.482
 7556TIP3    H246122   6.928   6.878   1.504
 7557TIP3   OH246123   5.773   6.509   1.856
 7557TIP3    H146124   5.727   6.447   1.801
 7557TIP3    H246125   5.844   6.459   1.896
 7558TIP3   OH246126   6.318   6.646   0.246
 7558TIP3    H146127   6.260   6.600   0.307
 7558TIP3    H246128   6.357   6.577   0.193
 7559TIP3   OH246129   6.228   6.413   1.414
 7559TIP3    H146130   6.162   6.475   1.446
 7559TIP3    H246131   6.309   6.463   1.413
 7560TIP3   OH246132   6.445   6.480   0.064
 7560TIP3    H146133   6.454   6.478  -0.031
 7560TIP3    H246134   6.534   6.468   0.096
 7561TIP3   OH246135   6.819   6.672   1.826
 7561TIP3    H146136   6.905   6.666   1.867
 7561TIP3    H246137   6.766   6.606   1.871
 7562TIP3   OH246138   7.352   6.715   8.482
 7562TIP3    H146139   7.344   6.703   8.388
 7562TIP3    H246140   7.371   6.808   8.493
 7563TIP3   OH246141   6.309   6.172   1.564
 7563TIP3    H146142   6.339   6.106   1.502
 7563TIP3    H246143   6.297   6.251   1.511
 7564TIP3   OH246144   6.367   5.996   1.341
 7564TIP3    H146145   6.422   6.040   1.277
 7564TIP3    H246146   6.280   5.994   1.302
 7565TIP3   OH246147   6.442   6.594   1.387
 7565TIP3    H146148   6.519   6.645   1.410
 7565TIP3    H246149   6.397   6.645   1.320
 7566TIP3   OH246150   6.932   6.298   1.876
 7566TIP3    H146151   6.929   6.222   1.818
 7566TIP3    H246152   7.025   6.316   1.886
 7567TIP3   OH246153   7.057   6.555   1.647
 7567TIP3    H146154   6.996   6.629   1.647
 7567TIP3    H246155   7.143   6.595   1.656
 7568TIP3   OH246156   6.141   6.233   1.777
 7568TIP3    H146157   6.070   6.176   1.750
 7568TIP3    H246158   6.207   6.223   1.709
 7569TIP3   OH246159   6.416   5.729   1.404
 7569TIP3    H146160   6.401   5.822   1.389
 7569TIP3    H246161   6.341   5.685   1.364
 7570TIP3   OH246162   6.559   6.142   1.746
 7570TIP3    H146163   6.563   6.091   1.827
 7570TIP3    H246164   6.469   6.133   1.716
 7571TIP3   OH246165   6.831   6.089   1.696
 7571TIP3    H146166   6.738   6.094   1.716
 7571TIP3    H246167   6.866   6.024   1.757
 7572TIP3   OH246168   6.944   5.931   1.891
 7572TIP3    H146169   6.973   5.840   1.894
 7572TIP3    H246170   6.857   5.931   1.931
 7573TIP3   OH246171   5.978   6.008   1.737
 7573TIP3    H146172   6.057   5.985   1.787
 7573TIP3    H246173   5.950   5.924   1.699
 7574TIP3   OH246174   6.378   5.638   1.662
 7574TIP3    H146175   6.447   5.573   1.670
 7574TIP3    H246176   6.390   5.675   1.574
 7575TIP3   OH246177   6.447   5.864   1.816
 7575TIP3    H146178   6.413   5.781   1.783
 7575TIP3    H246179   6.373   5.902   1.864
 7576TIP3   OH246180   6.422   7.518   0.144
 7576TIP3    H146181   6.514   7.516   0.171
 7576TIP3    H246182   6.413   7.600   0.095
 7577TIP3   OH246183   5.799   7.005   0.112
 7577TIP3    H146184   5.894   7.004   0.126
 7577TIP3    H246185   5.787   6.967   0.025
 7578TIP3   OH246186   5.647   7.490   0.600
 7578TIP3    H146187   5.591   7.445   0.537
 7578TIP3    H246188   5.667   7.423   0.665
 7579TIP3   OH246189   5.708   7.306   0.799
 7579TIP3    H146190   5.639   7.259   0.847
 7579TIP3    H246191   5.776   7.321   0.865
 7580TIP3   OH246192   7.490   7.442   1.051
 7580TIP3    H146193   7.492   7.479   1.139
 7580TIP3    H246194   7.484   7.518   0.993
 7581TIP3   OH246195   7.297   6.969   1.959
 7581TIP3    H146196   7.233   6.970   2.030
 7581TIP3    H246197   7.367   7.027   1.988
 7582TIP3   OH246198   7.427   6.749   0.398
 7582TIP3    H146199   7.500   6.809   0.405
 7582TIP3    H246200   7.437   6.691   0.474
 7583TIP3   OH246201   7.455   6.564   0.595
 7583TIP3    H146202   7.375   6.532   0.638
 7583TIP3    H246203   7.519   6.570   0.666
 7584TIP3   OH246204   7.485   6.821   1.052
 7584TIP3    H146205   7.549   6.827   1.123
 7584TIP3    H246206   7.479   6.910   1.018
 7585TIP3   OH246207   7.340   7.067   1.283
 7585TIP3    H146208   7.334   7.144   1.340
 7585TIP3    H246209   7.266   7.076   1.223
 7586TIP3   OH246210   7.444   6.558   0.202
 7586TIP3    H146211   7.401   6.601   0.128
 7586TIP3    H246212   7.441   6.623   0.272
 7587TIP3   OH246213   7.251   6.257   0.085
 7587TIP3    H146214   7.323   6.278   0.025
 7587TIP3    H246215   7.222   6.170   0.057
 7588TIP3   OH246216   7.227   6.439   0.682
 7588TIP3    H146217   7.215   6.349   0.651
 7588TIP3    H246218   7.182   6.441   0.767
 7589TIP3   OH246219   5.734   6.632   1.084
 7589TIP3    H146220   5.737   6.608   0.992
 7589TIP3    H246221   5.820   6.605   1.118
 7590TIP3   OH246222   7.314   6.637   1.661
 7590TIP3    H146223   7.380   6.568   1.665
 7590TIP3    H246224   7.360   6.711   1.621
 7591TIP3   OH246225   7.461   6.397   1.654
 7591TIP3    H146226   7.369   6.370   1.647
 7591TIP3    H246227   7.508   6.318   1.678
 7592TIP3   OH246228   7.161   6.001   0.032
 7592TIP3    H146229   7.225   5.959   0.089
 7592TIP3    H246230   7.082   6.008   0.085
 7593TIP3   OH246231   7.206   6.209   0.502
 7593TIP3    H146232   7.222   6.115   0.501
 7593TIP3    H246233   7.278   6.246   0.450
 7594TIP3   OH246234   7.240   6.243   1.054
 7594TIP3    H146235   7.335   6.252   1.046
 7594TIP3    H246236   7.223   6.252   1.147
 7595TIP3   OH246237   7.240   6.301   1.323
 7595TIP3    H146238   7.169   6.328   1.382
 7595TIP3    H246239   7.290   6.381   1.308
 7596TIP3   OH246240   5.731   6.112   1.620
 7596TIP3    H146241   5.807   6.095   1.676
 7596TIP3    H246242   5.666   6.047   1.648
 7597TIP3   OH246243   7.544   5.755   1.878
 7597TIP3    H146244   7.575   5.676   1.834
 7597TIP3    H246245   7.500   5.805   1.809
 7598TIP3   OH246246   7.243   5.935   0.506
 7598TIP3    H146247   7.267   5.899   0.592
 7598TIP3    H246248   7.179   5.875   0.471
 7599TIP3   OH246249   5.834   6.008   0.976
 7599TIP3    H146250   5.862   5.916   0.979
 7599TIP3    H246251   5.913   6.057   0.999
 7600TIP3   OH246252   5.674   6.310   1.067
 7600TIP3    H146253   5.746   6.312   1.004
 7600TIP3    H246254   5.716   6.300   1.152
 7601TIP3   OH246255   7.405   5.886   1.682
 7601TIP3    H146256   7.321   5.931   1.687
 7601TIP3    H246257   7.404   5.843   1.596
 7602TIP3   OH246258   7.402   5.902   0.138
 7602TIP3    H146259   7.422   5.884   0.047
 7602TIP3    H246260   7.467   5.966   0.165
 7603TIP3   OH246261   5.692   5.942   0.480
 7603TIP3    H146262   5.596   5.935   0.484
 7603TIP3    H246263   5.708   5.998   0.405
 7604TIP3   OH246264   7.131   7.434   0.629
 7604TIP3    H146265   7.203   7.408   0.572
 7604TIP3    H246266   7.172   7.453   0.713
 7605TIP3   OH246267   5.675   5.752   1.282
 7605TIP3    H146268   5.614   5.750   1.356
 7605TIP3    H246269   5.641   5.821   1.225
 7606TIP3   OH246270   5.916   7.095   1.732
 7606TIP3    H146271   5.843   7.034   1.745
 7606TIP3    H246272   5.909   7.156   1.805
 7607TIP3   OH246273   6.223   7.223   1.368
 7607TIP3    H146274   6.189   7.310   1.345
 7607TIP3    H246275   6.317   7.230   1.357
 7608TIP3   OH246276   6.616   7.305   1.676
 7608TIP3    H146277   6.620   7.252   1.756
 7608TIP3    H246278   6.697   7.356   1.677
 7609TIP3   OH246279   6.835   7.474   1.650
 7609TIP3    H146280   6.896   7.431   1.590
 7609TIP3    H246281   6.886   7.487   1.730
 7610TIP3   OH246282   7.366   5.716   1.449
 7610TIP3    H146283   7.279   5.736   1.484
 7610TIP3    H246284   7.378   5.623   1.466
 7611TIP3   OH246285   5.905   7.494   1.343
 7611TIP3    H146286   5.821   7.530   1.316
 7611TIP3    H246287   5.921   7.533   1.429
 7612TIP3   OH246288   6.174   7.481   1.296
 7612TIP3    H146289   6.081   7.487   1.321
 7612TIP3    H246290   6.181   7.537   1.219
 7613TIP3   OH246291   6.657   7.492   1.166
 7613TIP3    H146292   6.586   7.532   1.115
 7613TIP3    H246293   6.669   7.551   1.240
 7614TIP3   OH246294   6.830   7.299   1.253
 7614TIP3    H146295   6.779   7.377   1.231
 7614TIP3    H246296   6.880   7.324   1.331
 7615TIP3   OH246297   7.181   7.474   1.306
 7615TIP3    H146298   7.257   7.533   1.304
 7615TIP3    H246299   7.187   7.424   1.224
 7616TIP3   OH246300   5.879   7.348   1.023
 7616TIP3    H146301   5.872   7.307   1.110
 7616TIP3    H246302   5.965   7.321   0.991
 7617TIP3   OH246303   6.116   7.254   0.912
 7617TIP3    H146304   6.098   7.164   0.938
 7617TIP3    H246305   6.197   7.276   0.957
 7618TIP3   OH246306   6.359   7.268   1.052
 7618TIP3    H146307   6.367   7.176   1.026
 7618TIP3    H246308   6.399   7.271   1.139
 7619TIP3   OH246309   6.631   5.842   0.849
 7619TIP3    H146310   6.581   5.782   0.904
 7619TIP3    H246311   6.722   5.820   0.867
 7620TIP3   OH246312   7.199   5.701   0.904
 7620TIP3    H146313   7.253   5.759   0.851
 7620TIP3    H246314   7.189   5.747   0.987
 7621TIP3   OH246315   7.364   5.834   0.732
 7621TIP3    H146316   7.421   5.759   0.714
 7621TIP3    H246317   7.424   5.905   0.752
 7622TIP3   OH246318   5.930   5.704   0.683
 7622TIP3    H146319   5.838   5.688   0.662
 7622TIP3    H246320   5.974   5.621   0.667
 7623TIP3   OH246321   5.819   5.718   0.339
 7623TIP3    H146322   5.848   5.768   0.263
 7623TIP3    H246323   5.774   5.783   0.394
 7624TIP3   OH246324   6.405   5.684   0.685
 7624TIP3    H146325   6.471   5.740   0.646
 7624TIP3    H246326   6.423   5.686   0.779
 7625TIP3   OH246327   6.894   5.767   0.882
 7625TIP3    H146328   6.983   5.770   0.846
 7625TIP3    H246329   6.874   5.673   0.887
 7626TIP3   OH246330   7.058   5.755   0.407
 7626TIP3    H146331   6.984   5.814   0.423
 7626TIP3    H246332   7.023   5.668   0.423
 7627TIP3   OH246333   5.759   7.298   0.389
 7627TIP3    H146334   5.665   7.309   0.374
 7627TIP3    H246335   5.798   7.381   0.361
 7628TIP3   OH246336   5.949   5.825   0.111
 7628TIP3    H146337   6.038   5.796   0.130
 7628TIP3    H246338   5.956   5.920   0.106
 7629TIP3   OH246339   6.502   5.973   0.372
 7629TIP3    H146340   6.540   5.907   0.430
 7629TIP3    H246341   6.515   6.056   0.418
 7630TIP3   OH246342   6.687   7.497   0.217
 7630TIP3    H146343   6.766   7.550   0.214
 7630TIP3    H246344   6.712   7.415   0.174
 7631TIP3   OH246345   7.325   7.373   0.441
 7631TIP3    H146346   7.333   7.280   0.418
 7631TIP3    H246347   7.301   7.416   0.359
 7632TIP3   OH246348   5.918   5.766   1.611
 7632TIP3    H146349   5.851   5.706   1.643
 7632TIP3    H246350   5.998   5.741   1.657
 7633TIP3   OH246351   6.128   5.694   1.765
 7633TIP3    H146352   6.216   5.676   1.731
 7633TIP3    H246353   6.113   5.624   1.829
 7634TIP3   OH246354   6.042   7.474   0.028
 7634TIP3    H146355   6.011   7.470   0.119
 7634TIP3    H246356   6.097   7.396   0.019
 7635TIP3   OH246357   6.999   5.649   1.831
 7635TIP3    H146358   7.016   5.618   1.920
 7635TIP3    H246359   7.086   5.656   1.792
 7636TIP3   OH246360   7.565   6.309   0.546
 7636TIP3    H146361   7.538   6.395   0.579
 7636TIP3    H246362   7.512   6.296   0.468
 7637TIP3   OH246363   7.657   6.537   0.772
 7637TIP3    H146364   7.639   6.541   0.866
 7637TIP3    H246365   7.748   6.562   0.764
 7638TIP3   OH246366   7.616   6.947   0.367
 7638TIP3    H146367   7.615   6.953   0.271
 7638TIP3    H246368   7.563   7.020   0.396
 7639TIP3   OH246369   7.564   6.774   1.324
 7639TIP3    H146370   7.471   6.795   1.316
 7639TIP3    H246371   7.566   6.694   1.376
 7640TIP3   OH246372   7.532   7.090   1.024
 7640TIP3    H146373   7.627   7.095   1.024
 7640TIP3    H246374   7.506   7.114   1.113
 7641TIP3   OH246375   7.538   6.053   0.719
 7641TIP3    H146376   7.520   6.146   0.728
 7641TIP3    H246377   7.530   6.036   0.625
 7642TIP3   OH246378   7.579   6.102   0.228
 7642TIP3    H146379   7.670   6.125   0.244
 7642TIP3    H246380   7.531   6.183   0.243
 7643TIP3   OH246381   7.580   6.527   1.450
 7643TIP3    H146382   7.549   6.488   1.532
 7643TIP3    H246383   7.515   6.499   1.385
 7644TIP3   OH246384   7.624   6.743   1.806
 7644TIP3    H146385   7.556   6.713   1.867
 7644TIP3    H246386   7.577   6.768   1.727
 7645TIP3   OH246387   7.613   6.972   0.083
 7645TIP3    H146388   7.708   6.970   0.095
 7645TIP3    H246389   7.600   6.953  -0.010
 7646TIP3   OH246390   7.495   7.468   0.629
 7646TIP3    H146391   7.430   7.439   0.565
 7646TIP3    H246392   7.499   7.397   0.693
 7647TIP3   OH246393   7.508   7.282   0.826
 7647TIP3    H146394   7.500   7.194   0.861
 7647TIP3    H246395   7.512   7.339   0.903
 7648TIP3   OH246396   7.586   6.565   1.042
 7648TIP3    H146397   7.535   6.646   1.028
 7648TIP3    H246398   7.675   6.596   1.060
 7649TIP3   OH246399   7.545   6.132   1.652
 7649TIP3    H146400   7.640   6.128   1.656
 7649TIP3    H246401   7.515   6.048   1.687
 7650TIP3   OH246402   7.520   6.269   1.053
 7650TIP3    H146403   7.608   6.247   1.082
 7650TIP3    H246404   7.519   6.365   1.048
 7651TIP3   OH246405   7.516   5.969   0.459
 7651TIP3    H146406   7.423   5.944   0.463
 7651TIP3    H246407   7.527   6.008   0.373
 7652TIP3   OH246408   7.508   5.768   1.220
 7652TIP3    H146409   7.456   5.755   1.299
 7652TIP3    H246410   7.478   5.853   1.186
 7653TIP3   OH246411   7.633   7.282   0.381
 7653TIP3    H146412   7.547   7.242   0.377
 7653TIP3    H246413   7.624   7.352   0.446
 7654TIP3   OH246414   0.796   7.535   0.998
 7654TIP3    H146415   0.787   7.440   0.996
 7654TIP3    H246416   0.713   7.566   1.034
 7655TIP3   OH246417   1.657   7.548   0.280
 7655TIP3    H146418   1.564   7.553   0.302
 7655TIP3    H246419   1.688   7.639   0.283
 7656TIP3   OH246420   0.557   7.635   1.070
 7656TIP3    H146421   0.470   7.625   1.032
 7656TIP3    H246422   0.567   7.730   1.082
 7657TIP3   OH246423   1.044   7.609   1.400
 7657TIP3    H146424   1.104   7.564   1.460
 7657TIP3    H246425   0.959   7.571   1.419
 7658TIP3   OH246426   0.315   7.619   0.945
 7658TIP3    H146427   0.302   7.595   0.854
 7658TIP3    H246428   0.278   7.545   0.995
 7659TIP3   OH246429   0.781   7.534   1.377
 7659TIP3    H146430   0.766   7.629   1.376
 7659TIP3    H246431   0.698   7.497   1.348
 7660TIP3   OH246432   0.795   7.510   1.658
 7660TIP3    H146433   0.745   7.452   1.715
 7660TIP3    H246434   0.769   7.484   1.569
 7661TIP3   OH246435   1.852   7.564   1.918
 7661TIP3    H146436   1.933   7.556   1.968
 7661TIP3    H246437   1.850   7.655   1.889
 7662TIP3   OH246438   0.007   7.609   1.370
 7662TIP3    H146439  -0.015   7.580   1.459
 7662TIP3    H246440   0.035   7.700   1.381
 7663TIP3   OH246441   1.655   7.560   1.451
 7663TIP3    H146442   1.572   7.548   1.404
 7663TIP3    H246443   1.694   7.473   1.452
 7664TIP3   OH246444   1.536   7.549   0.872
 7664TIP3    H146445   1.627   7.566   0.849
 7664TIP3    H246446   1.501   7.635   0.898
 7665TIP3   OH246447   1.786   7.612   0.792
 7665TIP3    H146448   1.831   7.578   0.714
 7665TIP3    H246449   1.779   7.707   0.776
 7666TIP3   OH246450   0.300   7.588   0.665
 7666TIP3    H146451   0.216   7.560   0.629
 7666TIP3    H246452   0.355   7.510   0.661
 7667TIP3   OH246453   0.212   7.560   0.200
 7667TIP3    H146454   0.168   7.561   0.115
 7667TIP3    H246455   0.182   7.639   0.244
 7668TIP3   OH246456   0.722   7.529   0.702
 7668TIP3    H146457   0.727   7.623   0.681
 7668TIP3    H246458   0.720   7.526   0.797
 7669TIP3   OH246459   1.206   7.567   0.722
 7669TIP3    H146460   1.161   7.539   0.643
 7669TIP3    H246461   1.192   7.496   0.785
 7670TIP3   OH246462   1.407   7.594   0.400
 7670TIP3    H146463   1.370   7.539   0.330
 7670TIP3    H246464   1.398   7.541   0.479
 7671TIP3   OH246465   0.220   7.642   1.677
 7671TIP3    H146466   0.177   7.557   1.686
 7671TIP3    H246467   0.304   7.631   1.722
 7672TIP3   OH246468   0.450   7.557   1.835
 7672TIP3    H146469   0.513   7.488   1.812
 7672TIP3    H246470   0.391   7.516   1.898
 7673TIP3   OH246471   1.345   7.520   1.794
 7673TIP3    H146472   1.319   7.484   1.878
 7673TIP3    H246473   1.432   7.556   1.808
 7674TIP3   OH246474   2.658   7.534   0.995
 7674TIP3    H146475   2.654   7.438   1.000
 7674TIP3    H246476   2.573   7.564   1.025
 7675TIP3   OH246477   3.522   7.540   0.253
 7675TIP3    H146478   3.437   7.543   0.296
 7675TIP3    H246479   3.547   7.632   0.242
 7676TIP3   OH246480   2.419   7.650   1.064
 7676TIP3    H146481   2.336   7.628   1.021
 7676TIP3    H246482   2.433   7.742   1.041
 7677TIP3   OH246483   2.935   7.597   1.435
 7677TIP3    H146484   3.007   7.565   1.490
 7677TIP3    H246485   2.859   7.546   1.463
 7678TIP3   OH246486   2.176   7.598   0.950
 7678TIP3    H146487   2.170   7.590   0.855
 7678TIP3    H246488   2.141   7.515   0.983
 7679TIP3   OH246489   2.636   7.565   1.417
 7679TIP3    H146490   2.643   7.651   1.376
 7679TIP3    H246491   2.563   7.523   1.372
 7680TIP3   OH246492   2.601   7.458   1.666
 7680TIP3    H146493   2.690   7.427   1.683
 7680TIP3    H246494   2.603   7.490   1.576
 7681TIP3   OH246495   3.653   7.525   1.779
 7681TIP3    H146496   3.730   7.469   1.789
 7681TIP3    H246497   3.684   7.613   1.801
 7682TIP3   OH246498   1.899   7.602   1.296
 7682TIP3    H146499   1.821   7.599   1.353
 7682TIP3    H246500   1.924   7.694   1.294
 7683TIP3   OH246501   3.530   7.564   1.465
 7683TIP3    H146502   3.459   7.537   1.407
 7683TIP3    H246503   3.584   7.486   1.475
 7684TIP3   OH246504   3.428   7.571   0.865
 7684TIP3    H146505   3.515   7.598   0.835
 7684TIP3    H246506   3.391   7.651   0.903
 7685TIP3   OH246507   3.673   7.661   0.777
 7685TIP3    H146508   3.707   7.599   0.712
 7685TIP3    H246509   3.725   7.644   0.855
 7686TIP3   OH246510   2.166   7.569   0.674
 7686TIP3    H146511   2.082   7.538   0.639
 7686TIP3    H246512   2.223   7.492   0.668
 7687TIP3   OH246513   2.021   7.555   0.278
 7687TIP3    H146514   1.982   7.589   0.359
 7687TIP3    H246515   1.953   7.501   0.240
 7688TIP3   OH246516   2.577   7.542   0.721
 7688TIP3    H146517   2.584   7.634   0.695
 7688TIP3    H246518   2.615   7.539   0.809
 7689TIP3   OH246519   3.109   7.553   0.750
 7689TIP3    H146520   3.182   7.509   0.706
 7689TIP3    H246521   3.082   7.492   0.819
 7690TIP3   OH246522   3.282   7.586   0.399
 7690TIP3    H146523   3.244   7.534   0.328
 7690TIP3    H246524   3.279   7.528   0.475
 7691TIP3   OH246525   2.135   7.614   1.614
 7691TIP3    H146526   2.073   7.552   1.654
 7691TIP3    H246527   2.216   7.601   1.662
 7692TIP3   OH246528   2.361   7.559   1.763
 7692TIP3    H146529   2.446   7.522   1.740
 7692TIP3    H246530   2.323   7.495   1.823
 7693TIP3   OH246531   3.171   7.478   1.923
 7693TIP3    H146532   3.170   7.457   2.016
 7693TIP3    H246533   3.256   7.444   1.892
 7694TIP3   OH246534   4.513   7.521   0.988
 7694TIP3    H146535   4.506   7.428   1.008
 7694TIP3    H246536   4.433   7.560   1.025
 7695TIP3   OH246537   5.381   7.530   0.192
 7695TIP3    H146538   5.290   7.507   0.213
 7695TIP3    H246539   5.391   7.619   0.226
 7696TIP3   OH246540   4.289   7.660   1.074
 7696TIP3    H146541   4.203   7.648   1.033
 7696TIP3    H246542   4.310   7.752   1.058
 7697TIP3   OH246543   4.796   7.558   1.468
 7697TIP3    H146544   4.888   7.543   1.488
 7697TIP3    H246545   4.749   7.502   1.529
 7698TIP3   OH246546   4.045   7.605   0.962
 7698TIP3    H146547   4.041   7.586   0.868
 7698TIP3    H246548   4.018   7.523   1.004
 7699TIP3   OH246549   4.523   7.525   1.364
 7699TIP3    H146550   4.518   7.522   1.460
 7699TIP3    H246551   4.434   7.506   1.335
 7700TIP3   OH246552   4.523   7.502   1.636
 7700TIP3    H146553   4.557   7.528   1.722
 7700TIP3    H246554   4.498   7.411   1.647
 7701TIP3   OH246555   5.598   7.524   1.865
 7701TIP3    H146556   5.666   7.500   1.801
 7701TIP3    H246557   5.604   7.619   1.872
 7702TIP3   OH246558   3.771   7.590   1.280
 7702TIP3    H146559   3.707   7.572   1.349
 7702TIP3    H246560   3.790   7.684   1.289
 7703TIP3   OH246561   5.488   7.549   1.506
 7703TIP3    H146562   5.438   7.601   1.443
 7703TIP3    H246563   5.509   7.469   1.458
 7704TIP3   OH246564   5.291   7.548   0.850
 7704TIP3    H146565   5.323   7.636   0.871
 7704TIP3    H246566   5.196   7.557   0.845
 7705TIP3   OH246567   5.585   7.673   0.808
 7705TIP3    H146568   5.598   7.601   0.747
 7705TIP3    H246569   5.591   7.634   0.895
 7706TIP3   OH246570   4.028   7.556   0.690
 7706TIP3    H146571   3.943   7.526   0.659
 7706TIP3    H246572   4.087   7.482   0.676
 7707TIP3   OH246573   3.970   7.538   0.228
 7707TIP3    H146574   3.958   7.632   0.242
 7707TIP3    H246575   3.885   7.506   0.200
 7708TIP3   OH246576   4.514   7.543   0.707
 7708TIP3    H146577   4.506   7.638   0.695
 7708TIP3    H246578   4.520   7.531   0.801
 7709TIP3   OH246579   5.020   7.548   0.776
 7709TIP3    H146580   5.005   7.503   0.693
 7709TIP3    H246581   4.977   7.494   0.842
 7710TIP3   OH246582   5.160   7.588   0.438
 7710TIP3    H146583   5.200   7.675   0.445
 7710TIP3    H246584   5.205   7.535   0.504
 7711TIP3   OH246585   4.008   7.600   1.615
 7711TIP3    H146586   3.951   7.538   1.660
 7711TIP3    H246587   4.092   7.593   1.660
 7712TIP3   OH246588   4.222   7.525   1.791
 7712TIP3    H146589   4.298   7.469   1.780
 7712TIP3    H246590   4.167   7.479   1.854
 7713TIP3   OH246591   5.096   7.449   1.831
 7713TIP3    H146592   5.097   7.456   1.926
 7713TIP3    H246593   5.175   7.494   1.802
 7714TIP3   OH246594   6.423   7.539   0.999
 7714TIP3    H146595   6.419   7.444   1.009
 7714TIP3    H246596   6.339   7.570   1.032
 7715TIP3   OH246597   7.255   7.519   0.214
 7715TIP3    H146598   7.161   7.500   0.224
 7715TIP3    H246599   7.264   7.610   0.240
 7716TIP3   OH246600   6.182   7.639   1.075
 7716TIP3    H146601   6.095   7.633   1.035
 7716TIP3    H246602   6.201   7.733   1.077
 7717TIP3   OH246603   6.702   7.582   1.430
 7717TIP3    H146604   6.754   7.553   1.504
 7717TIP3    H246605   6.615   7.546   1.445
 7718TIP3   OH246606   5.941   7.606   0.947
 7718TIP3    H146607   5.939   7.583   0.854
 7718TIP3    H246608   5.909   7.528   0.992
 7719TIP3   OH246609   6.429   7.540   1.382
 7719TIP3    H146610   6.421   7.634   1.362
 7719TIP3    H246611   6.343   7.504   1.359
 7720TIP3   OH246612   6.434   7.523   1.657
 7720TIP3    H146613   6.489   7.450   1.687
 7720TIP3    H246614   6.428   7.510   1.562
 7721TIP3   OH246615   5.663   7.616   1.291
 7721TIP3    H146616   5.634   7.618   1.382
 7721TIP3    H246617   5.688   7.707   1.272
 7722TIP3   OH246618   7.192   7.517   0.879
 7722TIP3    H146619   7.273   7.567   0.888
 7722TIP3    H246620   7.123   7.581   0.887
 7723TIP3   OH246621   7.443   7.627   0.853
 7723TIP3    H146622   7.470   7.580   0.774
 7723TIP3    H246623   7.445   7.719   0.827
 7724TIP3   OH246624   5.905   7.582   0.629
 7724TIP3    H146625   5.820   7.540   0.623
 7724TIP3    H246626   5.968   7.510   0.631
 7725TIP3   OH246627   5.788   7.555   0.277
 7725TIP3    H146628   5.819   7.631   0.228
 7725TIP3    H246629   5.740   7.504   0.212
 7726TIP3   OH246630   6.373   7.544   0.719
 7726TIP3    H146631   6.369   7.637   0.696
 7726TIP3    H246632   6.399   7.544   0.811
 7727TIP3   OH246633   6.931   7.587   0.764
 7727TIP3    H146634   6.984   7.530   0.708
 7727TIP3    H246635   6.879   7.527   0.817
 7728TIP3   OH246636   7.042   7.603   0.419
 7728TIP3    H146637   7.000   7.545   0.355
 7728TIP3    H246638   7.055   7.547   0.496
 7729TIP3   OH246639   5.944   7.603   1.591
 7729TIP3    H146640   5.877   7.547   1.631
 7729TIP3    H246641   6.020   7.594   1.649
 7730TIP3   OH246642   6.171   7.550   1.751
 7730TIP3    H146643   6.261   7.561   1.720
 7730TIP3    H246644   6.174   7.469   1.803
 7731TIP3   OH246645   7.021   7.487   1.857
 7731TIP3    H146646   7.032   7.452   1.946
 7731TIP3    H246647   7.094   7.448   1.808
 7732TIP3   OH246648   7.432   7.595   1.272
 7732TIP3    H146649   7.465   7.566   1.356
 7732TIP3    H246650   7.468   7.683   1.261
 7733TIP3   OH246651   1.778   1.478   2.012
 7733TIP3    H146652   1.812   1.563   1.986
 7733TIP3    H246653   1.762   1.486   2.106
 7734TIP3   OH246654   1.037   0.380   1.995
 7734TIP3    H146655   0.986   0.449   2.038
 7734TIP3    H246656   0.972   0.328   1.948
 7735TIP3   OH246657   0.711   0.443   1.933
 7735TIP3    H146658   0.643   0.423   1.998
 7735TIP3    H246659   0.707   0.538   1.922
 7736TIP3   OH246660   1.269   0.503   2.157
 7736TIP3    H146661   1.181   0.538   2.174
 7736TIP3    H246662   1.304   0.557   2.087
 7737TIP3   OH246663   1.099   1.284   2.089
 7737TIP3    H146664   1.036   1.320   2.152
 7737TIP3    H246665   1.048   1.224   2.036
 7738TIP3   OH246666   0.216   0.950   2.000
 7738TIP3    H146667   0.288   0.949   2.063
 7738TIP3    H246668   0.145   0.902   2.044
 7739TIP3   OH246669   1.371   1.353   2.048
 7739TIP3    H146670   1.410   1.367   2.134
 7739TIP3    H246671   1.283   1.321   2.066
 7740TIP3   OH246672   1.820   1.802   2.009
 7740TIP3    H146673   1.891   1.757   2.056
 7740TIP3    H246674   1.764   1.837   2.078
 7741TIP3   OH246675   0.822   1.392   1.863
 7741TIP3    H146676   0.812   1.312   1.811
 7741TIP3    H246677   0.798   1.366   1.952
 7742TIP3   OH246678   0.769   1.357   2.132
 7742TIP3    H146679   0.705   1.298   2.172
 7742TIP3    H246680   0.737   1.445   2.153
 7743TIP3   OH246681   0.696   1.642   2.118
 7743TIP3    H146682   0.684   1.637   2.023
 7743TIP3    H246683   0.609   1.662   2.152
 7744TIP3   OH246684   0.518   0.404   2.128
 7744TIP3    H146685   0.450   0.466   2.101
 7744TIP3    H246686   0.476   0.350   2.194
 7745TIP3   OH246687   1.006   1.595   1.899
 7745TIP3    H146688   0.939   1.527   1.890
 7745TIP3    H246689   1.083   1.557   1.857
 7746TIP3   OH246690   1.447   1.583   1.916
 7746TIP3    H146691   1.422   1.510   1.974
 7746TIP3    H246692   1.526   1.620   1.956
 7747TIP3   OH246693   0.557   1.160   1.878
 7747TIP3    H146694   0.504   1.196   1.950
 7747TIP3    H246695   0.605   1.088   1.918
 7748TIP3   OH246696   0.651   0.988   2.091
 7748TIP3    H146697   0.587   1.046   2.134
 7748TIP3    H246698   0.712   0.964   2.161
 7749TIP3   OH246699   0.199   1.413   1.967
 7749TIP3    H146700   0.260   1.410   2.042
 7749TIP3    H246701   0.184   1.321   1.945
 7750TIP3   OH246702   1.580   0.376   1.841
 7750TIP3    H146703   1.625   0.363   1.925
 7750TIP3    H246704   1.488   0.362   1.861
 7751TIP3   OH246705   1.793   0.319   2.034
 7751TIP3    H146706   1.825   0.257   1.968
 7751TIP3    H246707   1.873   0.363   2.065
 7752TIP3   OH246708   0.300   1.751   1.967
 7752TIP3    H146709   0.263   1.822   2.019
 7752TIP3    H246710   0.277   1.671   2.014
 7753TIP3   OH246711   2.952   0.827   1.908
 7753TIP3    H146712   2.929   0.850   1.998
 7753TIP3    H246713   3.033   0.776   1.916
 7754TIP3   OH246714   3.159   0.867   2.146
 7754TIP3    H146715   3.223   0.848   2.214
 7754TIP3    H246716   3.131   0.957   2.163
 7755TIP3   OH246717   3.489   0.072   2.138
 7755TIP3    H146718   3.426   0.120   2.084
 7755TIP3    H246719   3.572   0.119   2.127
 7756TIP3   OH246720   3.663   1.457   2.005
 7756TIP3    H146721   3.615   1.518   2.062
 7756TIP3    H246722   3.754   1.486   2.012
 7757TIP3   OH246723   3.385   0.888   1.929
 7757TIP3    H146724   3.300   0.864   1.965
 7757TIP3    H246725   3.446   0.882   2.003
 7758TIP3   OH246726   2.556   0.487   1.989
 7758TIP3    H146727   2.601   0.465   2.070
 7758TIP3    H246728   2.476   0.531   2.017
 7759TIP3   OH246729   2.060   0.427   2.143
 7759TIP3    H146730   2.135   0.426   2.202
 7759TIP3    H246731   1.994   0.479   2.189
 7760TIP3   OH246732   2.340   0.714   2.020
 7760TIP3    H146733   2.246   0.698   2.007
 7760TIP3    H246734   2.376   0.714   1.931
 7761TIP3   OH246735   3.309   0.622   2.106
 7761TIP3    H146736   3.382   0.625   2.168
 7761TIP3    H246737   3.241   0.676   2.146
 7762TIP3   OH246738   2.195   1.018   2.078
 7762TIP3    H146739   2.186   0.947   2.014
 7762TIP3    H246740   2.160   1.095   2.033
 7763TIP3   OH246741   2.557   1.356   2.209
 7763TIP3    H146742   2.627   1.291   2.215
 7763TIP3    H246743   2.603   1.440   2.206
 7764TIP3   OH246744   2.053   0.721   2.034
 7764TIP3    H146745   2.034   0.766   2.117
 7764TIP3    H246746   2.019   0.633   2.045
 7765TIP3   OH246747   3.375   1.531   1.893
 7765TIP3    H146748   3.376   1.582   1.974
 7765TIP3    H246749   3.431   1.581   1.834
 7766TIP3   OH246750   2.422   1.138   1.873
 7766TIP3    H146751   2.446   1.117   1.964
 7766TIP3    H246752   2.505   1.143   1.827
 7767TIP3   OH246753   3.612   1.044   1.840
 7767TIP3    H146754   3.559   0.989   1.897
 7767TIP3    H246755   3.571   1.131   1.847
 7768TIP3   OH246756   2.061   1.268   2.028
 7768TIP3    H146757   2.006   1.346   2.041
 7768TIP3    H246758   2.024   1.226   1.950
 7769TIP3   OH246759   3.572   0.632   1.944
 7769TIP3    H146760   3.586   0.691   2.019
 7769TIP3    H246761   3.510   0.678   1.888
 7770TIP3   OH246762   3.471   0.372   1.909
 7770TIP3    H146763   3.493   0.463   1.930
 7770TIP3    H246764   3.376   0.368   1.914
 7771TIP3   OH246765   3.690   0.232   2.036
 7771TIP3    H146766   3.699   0.180   1.956
 7771TIP3    H246767   3.631   0.304   2.011
 7772TIP3   OH246768   1.956   0.086   2.150
 7772TIP3    H146769   2.002   0.138   2.084
 7772TIP3    H246770   1.866   0.119   2.147
 7773TIP3   OH246771   2.115   0.223   1.955
 7773TIP3    H146772   2.201   0.185   1.936
 7773TIP3    H246773   2.131   0.281   2.029
 7774TIP3   OH246774   2.180   1.743   1.926
 7774TIP3    H146775   2.120   1.718   1.995
 7774TIP3    H246776   2.264   1.706   1.953
 7775TIP3   OH246777   5.178   0.906   1.914
 7775TIP3    H146778   5.177   0.927   1.821
 7775TIP3    H246779   5.270   0.918   1.940
 7776TIP3   OH246780   4.452   0.435   1.931
 7776TIP3    H146781   4.401   0.406   2.007
 7776TIP3    H246782   4.444   0.531   1.933
 7777TIP3   OH246783   5.015   0.424   2.088
 7777TIP3    H146784   5.074   0.498   2.077
 7777TIP3    H246785   5.031   0.393   2.177
 7778TIP3   OH246786   4.775   1.260   2.096
 7778TIP3    H146787   4.863   1.265   2.133
 7778TIP3    H246788   4.717   1.280   2.169
 7779TIP3   OH246789   4.563   1.473   1.903
 7779TIP3    H146790   4.613   1.406   1.856
 7779TIP3    H246791   4.556   1.440   1.992
 7780TIP3   OH246792   4.312   0.375   2.169
 7780TIP3    H146793   4.291   0.465   2.146
 7780TIP3    H246794   4.340   0.379   2.260
 7781TIP3   OH246795   4.827   1.619   1.887
 7781TIP3    H146796   4.758   1.555   1.905
 7781TIP3    H246797   4.908   1.570   1.898
 7782TIP3   OH246798   4.305   1.117   1.877
 7782TIP3    H146799   4.315   1.050   1.945
 7782TIP3    H246800   4.391   1.122   1.836
 7783TIP3   OH246801   4.780   1.307   1.831
 7783TIP3    H146802   4.779   1.293   1.926
 7783TIP3    H246803   4.822   1.228   1.796
 7784TIP3   OH246804   4.349   0.925   2.076
 7784TIP3    H146805   4.271   0.872   2.092
 7784TIP3    H246806   4.398   0.921   2.159
 7785TIP3   OH246807   4.477   0.726   1.901
 7785TIP3    H146808   4.425   0.761   1.973
 7785TIP3    H246809   4.510   0.803   1.856
 7786TIP3   OH246810   5.445   1.000   1.876
 7786TIP3    H146811   5.519   0.943   1.897
 7786TIP3    H246812   5.476   1.088   1.898
 7787TIP3   OH246813   5.425   0.660   1.954
 7787TIP3    H146814   5.520   0.664   1.966
 7787TIP3    H246815   5.406   0.567   1.948
 7788TIP3   OH246816   5.349   0.387   1.939
 7788TIP3    H146817   5.363   0.342   1.856
 7788TIP3    H246818   5.322   0.317   1.999
 7789TIP3   OH246819   5.651   0.239   2.038
 7789TIP3    H146820   5.634   0.208   1.950
 7789TIP3    H246821   5.631   0.333   2.034
 7790TIP3   OH246822   3.958   0.161   2.035
 7790TIP3    H146823   3.969   0.070   2.062
 7790TIP3    H246824   3.867   0.182   2.055
 7791TIP3   OH246825   4.009   1.726   1.943
 7791TIP3    H146826   3.958   1.715   2.024
 7791TIP3    H246827   4.074   1.655   1.946
 7792TIP3   OH246828   6.726   0.763   2.005
 7792TIP3    H146829   6.652   0.748   2.064
 7792TIP3    H246830   6.798   0.787   2.063
 7793TIP3   OH246831   6.965   0.856   2.143
 7793TIP3    H146832   6.973   0.803   2.223
 7793TIP3    H246833   7.016   0.935   2.162
 7794TIP3   OH246834   7.156   0.995   1.919
 7794TIP3    H146835   7.085   0.935   1.897
 7794TIP3    H246836   7.140   1.020   2.010
 7795TIP3   OH246837   6.700   0.322   1.970
 7795TIP3    H146838   6.679   0.366   2.052
 7795TIP3    H246839   6.618   0.283   1.941
 7796TIP3   OH246840   6.773   1.314   2.135
 7796TIP3    H146841   6.778   1.404   2.168
 7796TIP3    H246842   6.760   1.261   2.213
 7797TIP3   OH246843   7.515   0.609   2.142
 7797TIP3    H146844   7.438   0.601   2.086
 7797TIP3    H246845   7.516   0.701   2.169
 7798TIP3   OH246846   7.072   1.314   1.995
 7798TIP3    H146847   7.076   1.255   2.071
 7798TIP3    H246848   6.987   1.296   1.956
 7799TIP3   OH246849   6.447   1.448   1.922
 7799TIP3    H146850   6.454   1.360   1.884
 7799TIP3    H246851   6.402   1.434   2.006
 7800TIP3   OH246852   6.080   1.123   2.158
 7800TIP3    H146853   6.052   1.059   2.223
 7800TIP3    H246854   6.121   1.193   2.210
 7801TIP3   OH246855   6.068   1.398   2.018
 7801TIP3    H146856   6.133   1.414   2.087
 7801TIP3    H246857   6.103   1.323   1.969
 7802TIP3   OH246858   6.658   1.647   1.897
 7802TIP3    H146859   6.594   1.587   1.934
 7802TIP3    H246860   6.728   1.591   1.863
 7803TIP3   OH246861   7.074   1.590   1.916
 7803TIP3    H146862   7.072   1.516   1.976
 7803TIP3    H246863   7.151   1.574   1.861
 7804TIP3   OH246864   6.167   1.166   1.891
 7804TIP3    H146865   6.147   1.129   1.977
 7804TIP3    H246866   6.261   1.152   1.880
 7805TIP3   OH246867   6.814   1.274   1.874
 7805TIP3    H146868   6.784   1.289   1.963
 7805TIP3    H246869   6.793   1.183   1.856
 7806TIP3   OH246870   7.416   1.051   1.903
 7806TIP3    H146871   7.327   1.017   1.911
 7806TIP3    H246872   7.415   1.134   1.952
 7807TIP3   OH246873   6.409   1.901   2.073
 7807TIP3    H146874   6.403   1.852   2.155
 7807TIP3    H246875   6.350   1.855   2.013
 7808TIP3   OH246876   5.804   1.312   2.021
 7808TIP3    H146877   5.896   1.336   2.023
 7808TIP3    H246878   5.800   1.238   1.960
 7809TIP3   OH246879   7.510   0.888   2.133
 7809TIP3    H146880   7.478   0.915   2.047
 7809TIP3    H246881   7.462   0.943   2.195
 7810TIP3   OH246882   7.340   0.607   1.935
 7810TIP3    H146883   7.307   0.669   1.870
 7810TIP3    H246884   7.296   0.524   1.914
 7811TIP3   OH246885   7.234   0.373   1.827
 7811TIP3    H146886   7.317   0.329   1.807
 7811TIP3    H246887   7.174   0.303   1.851
 7812TIP3   OH246888   7.448   0.266   2.069
 7812TIP3    H146889   7.469   0.180   2.032
 7812TIP3    H246890   7.500   0.327   2.017
 7813TIP3   OH246891   5.916   0.148   2.042
 7813TIP3    H146892   5.824   0.174   2.054
 7813TIP3    H246893   5.938   0.102   2.123
 7814TIP3   OH246894   5.975   1.736   1.941
 7814TIP3    H146895   5.928   1.784   2.008
 7814TIP3    H246896   6.010   1.659   1.986
 7815TIP3   OH246897   7.615   0.440   1.934
 7815TIP3    H146898   7.704   0.424   1.966
 7815TIP3    H246899   7.583   0.513   1.988
 7816TIP3   OH246900   1.088   2.673   1.949
 7816TIP3    H146901   1.100   2.668   2.043
 7816TIP3    H246902   1.157   2.618   1.912
 7817TIP3   OH246903   1.637   1.932   2.186
 7817TIP3    H146904   1.668   1.899   2.270
 7817TIP3    H246905   1.571   1.998   2.209
 7818TIP3   OH246906   1.386   2.931   1.964
 7818TIP3    H146907   1.414   2.842   1.985
 7818TIP3    H246908   1.410   2.983   2.041
 7819TIP3   OH246909   0.957   2.252   2.032
 7819TIP3    H146910   0.884   2.286   2.084
 7819TIP3    H246911   0.916   2.189   1.973
 7820TIP3   OH246912   0.659   2.280   2.020
 7820TIP3    H146913   0.677   2.278   2.114
 7820TIP3    H246914   0.623   2.367   2.004
 7821TIP3   OH246915   0.576   2.540   2.029
 7821TIP3    H146916   0.647   2.590   1.989
 7821TIP3    H246917   0.572   2.572   2.119
 7822TIP3   OH246918   1.219   2.341   2.064
 7822TIP3    H146919   1.125   2.322   2.071
 7822TIP3    H246920   1.231   2.418   2.120
 7823TIP3   OH246921   1.046   3.224   2.107
 7823TIP3    H146922   1.119   3.271   2.149
 7823TIP3    H246923   1.001   3.181   2.180
 7824TIP3   OH246924   0.242   2.781   1.978
 7824TIP3    H146925   0.325   2.766   2.023
 7824TIP3    H246926   0.178   2.729   2.027
 7825TIP3   OH246927   1.883   3.661   2.031
 7825TIP3    H146928   1.942   3.707   2.090
 7825TIP3    H246929   1.796   3.690   2.057
 7826TIP3   OH246930   0.801   3.305   1.855
 7826TIP3    H146931   0.883   3.257   1.842
 7826TIP3    H246932   0.740   3.239   1.889
 7827TIP3   OH246933   1.030   3.508   1.890
 7827TIP3    H146934   0.960   3.445   1.909
 7827TIP3    H246935   1.102   3.454   1.858
 7828TIP3   OH246936   1.488   3.412   1.897
 7828TIP3    H146937   1.536   3.388   1.976
 7828TIP3    H246938   1.555   3.447   1.838
 7829TIP3   OH246939   0.634   3.076   1.956
 7829TIP3    H146940   0.647   3.011   2.025
 7829TIP3    H246941   0.680   3.040   1.880
 7830TIP3   OH246942   1.043   3.164   1.845
 7830TIP3    H146943   1.043   3.182   1.939
 7830TIP3    H246944   1.078   3.075   1.837
 7831TIP3   OH246945   0.789   2.666   1.916
 7831TIP3    H146946   0.790   2.720   1.838
 7831TIP3    H246947   0.869   2.689   1.963
 7832TIP3   OH246948   0.762   3.664   2.013
 7832TIP3    H146949   0.842   3.654   2.064
 7832TIP3    H246950   0.757   3.758   1.995
 7833TIP3   OH246951   0.193   3.194   2.003
 7833TIP3    H146952   0.280   3.190   2.043
 7833TIP3    H246953   0.192   3.121   1.941
 7834TIP3   OH246954   1.556   2.305   1.828
 7834TIP3    H146955   1.598   2.228   1.866
 7834TIP3    H246956   1.463   2.288   1.836
 7835TIP3   OH246957   0.215   1.979   2.094
 7835TIP3    H146958   0.278   2.048   2.075
 7835TIP3    H246959   0.187   1.995   2.184
 7836TIP3   OH246960   0.402   2.181   2.066
 7836TIP3    H146961   0.493   2.194   2.043
 7836TIP3    H246962   0.395   2.216   2.155
 7837TIP3   OH246963   1.002   3.632   2.143
 7837TIP3    H146964   1.077   3.660   2.195
 7837TIP3    H246965   1.041   3.598   2.062
 7838TIP3   OH246966   0.280   3.691   1.958
 7838TIP3    H146967   0.222   3.737   2.018
 7838TIP3    H246968   0.323   3.625   2.012
 7839TIP3   OH246969   3.320   2.917   1.944
 7839TIP3    H146970   3.314   2.882   1.855
 7839TIP3    H246971   3.412   2.940   1.955
 7840TIP3   OH246972   3.715   3.669   2.063
 7840TIP3    H146973   3.806   3.644   2.081
 7840TIP3    H246974   3.721   3.729   1.989
 7841TIP3   OH246975   2.668   3.304   1.874
 7841TIP3    H146976   2.675   3.220   1.827
 7841TIP3    H246977   2.654   3.278   1.965
 7842TIP3   OH246978   2.863   3.422   2.136
 7842TIP3    H146979   2.877   3.413   2.230
 7842TIP3    H246980   2.909   3.503   2.112
 7843TIP3   OH246981   1.995   2.511   1.988
 7843TIP3    H146982   2.053   2.460   1.932
 7843TIP3    H246983   2.044   2.522   2.070
 7844TIP3   OH246984   2.858   3.511   1.849
 7844TIP3    H146985   2.796   3.445   1.879
 7844TIP3    H246986   2.941   3.464   1.838
 7845TIP3   OH246987   3.017   3.121   1.891
 7845TIP3    H146988   2.997   3.118   1.985
 7845TIP3    H246989   3.017   3.029   1.864
 7846TIP3   OH246990   2.553   2.842   2.124
 7846TIP3    H146991   2.502   2.832   2.204
 7846TIP3    H246992   2.644   2.830   2.151
 7847TIP3   OH246993   3.578   3.007   1.911
 7847TIP3    H146994   3.591   2.969   1.824
 7847TIP3    H246995   3.661   3.049   1.931
 7848TIP3   OH246996   2.622   3.687   2.055
 7848TIP3    H146997   2.714   3.689   2.085
 7848TIP3    H246998   2.616   3.758   1.991
 7849TIP3   OH246999   3.534   2.548   1.968
 7849TIP3    H147000   3.594   2.587   1.905
 7849TIP3    H247001   3.509   2.464   1.930
 7850TIP3   OH247002   3.426   2.301   1.884
 7850TIP3    H147003   3.495   2.254   1.931
 7850TIP3    H247004   3.357   2.236   1.872
 7851TIP3   OH247005   3.625   2.177   2.031
 7851TIP3    H147006   3.665   2.097   1.995
 7851TIP3    H247007   3.693   2.215   2.086
 7852TIP3   OH247008   5.475   3.473   1.990
 7852TIP3    H147009   5.570   3.467   1.996
 7852TIP3    H247010   5.447   3.385   1.966
 7853TIP3   OH247011   5.166   2.889   1.989
 7853TIP3    H147012   5.261   2.888   1.996
 7853TIP3    H247013   5.135   2.850   2.071
 7854TIP3   OH247014   4.875   3.103   2.161
 7854TIP3    H147015   4.964   3.135   2.151
 7854TIP3    H247016   4.883   3.024   2.215
 7855TIP3   OH247017   3.989   2.788   1.992
 7855TIP3    H147018   4.072   2.792   2.041
 7855TIP3    H247019   3.927   2.836   2.046
 7856TIP3   OH247020   5.134   3.153   2.081
 7856TIP3    H147021   5.202   3.150   2.148
 7856TIP3    H247022   5.136   3.067   2.040
 7857TIP3   OH247023   4.605   3.298   1.847
 7857TIP3    H147024   4.677   3.236   1.853
 7857TIP3    H247025   4.528   3.245   1.826
 7858TIP3   OH247026   4.078   3.239   1.993
 7858TIP3    H147027   4.103   3.297   2.065
 7858TIP3    H247028   4.157   3.190   1.974
 7859TIP3   OH247029   4.040   2.473   1.948
 7859TIP3    H147030   4.059   2.443   2.037
 7859TIP3    H247031   3.981   2.548   1.960
 7860TIP3   OH247032   4.798   3.480   1.916
 7860TIP3    H147033   4.726   3.421   1.893
 7860TIP3    H247034   4.876   3.440   1.877
 7861TIP3   OH247035   4.293   3.061   1.906
 7861TIP3    H147036   4.288   2.981   1.958
 7861TIP3    H247037   4.376   3.053   1.858
 7862TIP3   OH247038   4.841   3.159   1.890
 7862TIP3    H147039   4.848   3.153   1.985
 7862TIP3    H247040   4.868   3.072   1.859
 7863TIP3   OH247041   4.536   2.710   1.941
 7863TIP3    H147042   4.537   2.744   1.852
 7863TIP3    H247043   4.602   2.641   1.942
 7864TIP3   OH247044   4.599   3.746   2.102
 7864TIP3    H147045   4.608   3.811   2.172
 7864TIP3    H247046   4.583   3.799   2.024
 7865TIP3   OH247047   3.822   3.131   1.958
 7865TIP3    H147048   3.898   3.176   1.995
 7865TIP3    H247049   3.856   3.083   1.883
 7866TIP3   OH247050   5.574   2.519   1.971
 7866TIP3    H147051   5.530   2.575   2.035
 7866TIP3    H247052   5.546   2.431   1.993
 7867TIP3   OH247053   5.334   2.227   1.884
 7867TIP3    H147054   5.387   2.198   1.959
 7867TIP3    H247055   5.396   2.228   1.811
 7868TIP3   OH247056   5.535   2.144   2.052
 7868TIP3    H147057   5.607   2.083   2.066
 7868TIP3    H247058   5.523   2.187   2.137
 7869TIP3   OH247059   4.033   2.131   2.013
 7869TIP3    H147060   4.113   2.127   2.067
 7869TIP3    H247061   3.968   2.171   2.071
 7870TIP3   OH247062   4.107   3.597   1.985
 7870TIP3    H147063   4.105   3.602   2.080
 7870TIP3    H247064   4.188   3.550   1.965
 7871TIP3   OH247065   6.737   2.659   1.968
 7871TIP3    H147066   6.677   2.693   2.034
 7871TIP3    H247067   6.761   2.572   1.999
 7872TIP3   OH247068   6.668   2.304   1.946
 7872TIP3    H147069   6.705   2.284   2.033
 7872TIP3    H247070   6.616   2.227   1.924
 7873TIP3   OH247071   6.260   2.221   1.918
 7873TIP3    H147072   6.187   2.179   1.964
 7873TIP3    H247073   6.227   2.308   1.895
 7874TIP3   OH247074   7.475   2.482   2.148
 7874TIP3    H147075   7.455   2.568   2.110
 7874TIP3    H247076   7.533   2.501   2.221
 7875TIP3   OH247077   5.843   2.584   1.949
 7875TIP3    H147078   5.879   2.537   2.024
 7875TIP3    H247079   5.750   2.561   1.948
 7876TIP3   OH247080   6.675   3.490   1.872
 7876TIP3    H147081   6.688   3.542   1.952
 7876TIP3    H247082   6.757   3.442   1.860
 7877TIP3   OH247083   6.182   2.969   1.858
 7877TIP3    H147084   6.203   2.914   1.934
 7877TIP3    H247085   6.267   2.996   1.823
 7878TIP3   OH247086   6.768   3.152   1.924
 7878TIP3    H147087   6.791   3.137   2.016
 7878TIP3    H247088   6.760   3.064   1.887
 7879TIP3   OH247089   6.259   2.827   2.082
 7879TIP3    H147090   6.279   2.828   2.176
 7879TIP3    H247091   6.289   2.742   2.052
 7880TIP3   OH247092   7.397   2.957   1.921
 7880TIP3    H147093   7.352   2.895   1.865
 7880TIP3    H247094   7.352   3.040   1.908
 7881TIP3   OH247095   7.444   2.754   2.104
 7881TIP3    H147096   7.438   2.836   2.056
 7881TIP3    H247097   7.502   2.774   2.178
 7882TIP3   OH247098   7.223   2.307   1.835
 7882TIP3    H147099   7.293   2.248   1.809
 7882TIP3    H247100   7.146   2.251   1.843
 7883TIP3   OH247101   6.004   2.169   2.033
 7883TIP3    H147102   5.979   2.081   2.060
 7883TIP3    H247103   5.999   2.221   2.114
 7884TIP3   OH247104   7.638   3.201   2.099
 7884TIP3    H147105   7.726   3.212   2.064
 7884TIP3    H247106   7.591   3.150   2.033
 7885TIP3   OH247107   1.045   4.580   1.990
 7885TIP3    H147108   1.077   4.604   2.076
 7885TIP3    H247109   1.111   4.520   1.954
 7886TIP3   OH247110   1.646   3.804   2.106
 7886TIP3    H147111   1.587   3.809   2.181
 7886TIP3    H247112   1.686   3.891   2.101
 7887TIP3   OH247113   1.779   5.245   1.965
 7887TIP3    H147114   1.798   5.328   2.009
 7887TIP3    H247115   1.798   5.178   2.030
 7888TIP3   OH247116   1.369   4.764   1.890
 7888TIP3    H147117   1.405   4.734   1.807
 7888TIP3    H247118   1.441   4.758   1.952
 7889TIP3   OH247119   0.956   4.097   1.978
 7889TIP3    H147120   0.975   4.118   2.069
 7889TIP3    H247121   0.893   4.024   1.983
 7890TIP3   OH247122   0.170   4.249   2.236
 7890TIP3    H147123   0.150   4.223   2.146
 7890TIP3    H247124   0.151   4.170   2.288
 7891TIP3   OH247125   1.249   4.229   2.095
 7891TIP3    H147126   1.182   4.204   2.158
 7891TIP3    H247127   1.291   4.305   2.133
 7892TIP3   OH247128   1.359   4.468   2.182
 7892TIP3    H147129   1.420   4.458   2.255
 7892TIP3    H247130   1.307   4.546   2.204
 7893TIP3   OH247131   0.235   4.641   2.015
 7893TIP3    H147132   0.316   4.640   2.068
 7893TIP3    H247133   0.165   4.644   2.080
 7894TIP3   OH247134   1.821   5.542   2.047
 7894TIP3    H147135   1.831   5.606   1.977
 7894TIP3    H247136   1.757   5.581   2.106
 7895TIP3   OH247137   0.824   5.173   1.915
 7895TIP3    H147138   0.801   5.210   1.830
 7895TIP3    H247139   0.827   5.079   1.900
 7896TIP3   OH247140   0.143   4.375   1.938
 7896TIP3    H147141   0.181   4.439   2.000
 7896TIP3    H247142   0.136   4.423   1.856
 7897TIP3   OH247143   0.991   5.409   1.900
 7897TIP3    H147144   0.923   5.348   1.928
 7897TIP3    H247145   1.063   5.352   1.870
 7898TIP3   OH247146   1.446   5.357   1.872
 7898TIP3    H147147   1.487   5.345   1.957
 7898TIP3    H247148   1.517   5.347   1.809
 7899TIP3   OH247149   0.566   4.902   1.935
 7899TIP3    H147150   0.598   4.837   1.998
 7899TIP3    H247151   0.638   4.912   1.873
 7900TIP3   OH247152   0.634   4.726   2.132
 7900TIP3    H147153   0.679   4.723   2.216
 7900TIP3    H247154   0.682   4.665   2.077
 7901TIP3   OH247155   0.769   4.566   1.959
 7901TIP3    H147156   0.760   4.585   1.866
 7901TIP3    H247157   0.863   4.562   1.974
 7902TIP3   OH247158   1.705   4.791   1.898
 7902TIP3    H147159   1.693   4.767   1.806
 7902TIP3    H247160   1.678   4.883   1.902
 7903TIP3   OH247161   0.730   5.593   2.007
 7903TIP3    H147162   0.747   5.582   2.100
 7903TIP3    H247163   0.777   5.673   1.983
 7904TIP3   OH247164   1.870   4.623   2.041
 7904TIP3    H147165   1.808   4.689   2.009
 7904TIP3    H247166   1.907   4.661   2.121
 7905TIP3   OH247167   1.607   4.417   1.881
 7905TIP3    H147168   1.654   4.478   1.938
 7905TIP3    H247169   1.619   4.331   1.922
 7906TIP3   OH247170   1.593   4.112   1.853
 7906TIP3    H147171   1.630   4.094   1.939
 7906TIP3    H247172   1.499   4.111   1.867
 7907TIP3   OH247173   1.765   4.047   2.060
 7907TIP3    H147174   1.825   4.003   1.999
 7907TIP3    H247175   1.821   4.109   2.107
 7908TIP3   OH247176   0.182   3.809   2.189
 7908TIP3    H147177   0.140   3.876   2.243
 7908TIP3    H247178   0.191   3.733   2.248
 7909TIP3   OH247179   0.303   3.997   2.013
 7909TIP3    H147180   0.363   3.927   1.989
 7909TIP3    H247181   0.249   3.960   2.083
 7910TIP3   OH247182   0.339   5.481   1.982
 7910TIP3    H147183   0.345   5.572   2.011
 7910TIP3    H247184   0.427   5.461   1.950
 7911TIP3   OH247185   2.929   4.555   1.992
 7911TIP3    H147186   2.882   4.527   2.071
 7911TIP3    H247187   3.008   4.501   1.991
 7912TIP3   OH247188   3.652   5.300   2.055
 7912TIP3    H147189   3.632   5.373   2.113
 7912TIP3    H247190   3.748   5.295   2.055
 7913TIP3   OH247191   3.127   5.566   2.050
 7913TIP3    H147192   3.127   5.477   2.014
 7913TIP3    H247193   3.046   5.572   2.100
 7914TIP3   OH247194   2.596   4.167   1.945
 7914TIP3    H147195   2.632   4.228   2.009
 7914TIP3    H247196   2.523   4.215   1.906
 7915TIP3   OH247197   3.074   4.233   2.035
 7915TIP3    H147198   2.990   4.227   2.080
 7915TIP3    H247199   3.132   4.276   2.097
 7916TIP3   OH247200   3.240   4.383   2.190
 7916TIP3    H147201   3.246   4.388   2.286
 7916TIP3    H247202   3.304   4.447   2.159
 7917TIP3   OH247203   2.934   5.100   2.124
 7917TIP3    H147204   2.905   5.185   2.156
 7917TIP3    H247205   2.992   5.068   2.194
 7918TIP3   OH247206   3.288   5.115   2.056
 7918TIP3    H147207   3.292   5.028   2.096
 7918TIP3    H247208   3.215   5.110   1.994
 7919TIP3   OH247209   2.693   5.167   1.880
 7919TIP3    H147210   2.698   5.081   1.839
 7919TIP3    H247211   2.609   5.168   1.925
 7920TIP3   OH247212   2.357   5.151   2.102
 7920TIP3    H147213   2.361   5.206   2.024
 7920TIP3    H247214   2.326   5.066   2.069
 7921TIP3   OH247215   2.120   4.440   1.973
 7921TIP3    H147216   2.153   4.488   2.049
 7921TIP3    H247217   2.031   4.415   1.998
 7922TIP3   OH247218   2.878   5.373   1.856
 7922TIP3    H147219   2.820   5.301   1.882
 7922TIP3    H247220   2.960   5.330   1.832
 7923TIP3   OH247221   3.330   5.350   1.895
 7923TIP3    H147222   3.349   5.281   1.958
 7923TIP3    H247223   3.405   5.351   1.836
 7924TIP3   OH247224   2.417   4.907   1.879
 7924TIP3    H147225   2.420   4.831   1.937
 7924TIP3    H247226   2.505   4.911   1.840
 7925TIP3   OH247227   3.065   5.050   1.890
 7925TIP3    H147228   3.003   5.063   1.962
 7925TIP3    H247229   3.066   4.955   1.877
 7926TIP3   OH247230   2.647   4.590   1.914
 7926TIP3    H147231   2.620   4.512   1.962
 7926TIP3    H247232   2.738   4.604   1.940
 7927TIP3   OH247233   3.483   4.815   1.953
 7927TIP3    H147234   3.500   4.786   1.864
 7927TIP3    H247235   3.550   4.881   1.970
 7928TIP3   OH247236   3.442   4.404   1.911
 7928TIP3    H147237   3.518   4.443   1.954
 7928TIP3    H247238   3.459   4.310   1.912
 7929TIP3   OH247239   3.455   4.125   1.866
 7929TIP3    H147240   3.504   4.088   1.939
 7929TIP3    H247241   3.368   4.086   1.874
 7930TIP3   OH247242   3.644   4.031   2.048
 7930TIP3    H147243   3.706   3.976   2.000
 7930TIP3    H247244   3.698   4.099   2.088
 7931TIP3   OH247245   2.216   4.062   2.039
 7931TIP3    H147246   2.261   4.138   2.074
 7931TIP3    H247247   2.137   4.054   2.092
 7932TIP3   OH247248   2.205   5.506   1.912
 7932TIP3    H147249   2.147   5.473   1.981
 7932TIP3    H247250   2.284   5.452   1.919
 7933TIP3   OH247251   4.861   4.634   1.979
 7933TIP3    H147252   4.895   4.673   2.059
 7933TIP3    H247253   4.920   4.561   1.961
 7934TIP3   OH247254   5.120   4.637   2.182
 7934TIP3    H147255   5.066   4.594   2.248
 7934TIP3    H247256   5.145   4.566   2.122
 7935TIP3   OH247257   5.160   5.569   2.093
 7935TIP3    H147258   5.188   5.486   2.055
 7935TIP3    H247259   5.174   5.558   2.187
 7936TIP3   OH247260   4.741   4.090   2.039
 7936TIP3    H147261   4.682   4.136   2.099
 7936TIP3    H247262   4.684   4.031   1.989
 7937TIP3   OH247263   4.432   4.158   1.957
 7937TIP3    H147264   4.387   4.148   2.041
 7937TIP3    H247265   4.380   4.223   1.910
 7938TIP3   OH247266   4.997   4.189   2.014
 7938TIP3    H147267   4.909   4.159   2.038
 7938TIP3    H247268   5.036   4.216   2.097
 7939TIP3   OH247269   5.155   4.299   2.227
 7939TIP3    H147270   5.200   4.282   2.309
 7939TIP3    H247271   5.225   4.319   2.164
 7940TIP3   OH247272   5.164   5.065   2.033
 7940TIP3    H147273   5.125   5.021   2.108
 7940TIP3    H247274   5.096   5.063   1.966
 7941TIP3   OH247275   4.579   5.185   1.887
 7941TIP3    H147276   4.588   5.100   1.843
 7941TIP3    H247277   4.544   5.165   1.973
 7942TIP3   OH247278   4.480   5.134   2.141
 7942TIP3    H147279   4.551   5.094   2.191
 7942TIP3    H247280   4.478   5.225   2.171
 7943TIP3   OH247281   4.481   5.406   2.205
 7943TIP3    H147282   4.500   5.473   2.140
 7943TIP3    H247283   4.491   5.451   2.289
 7944TIP3   OH247284   4.287   4.130   2.197
 7944TIP3    H147285   4.196   4.136   2.227
 7944TIP3    H247286   4.338   4.174   2.266
 7945TIP3   OH247287   3.916   4.402   1.989
 7945TIP3    H147288   3.961   4.458   2.053
 7945TIP3    H247289   3.873   4.335   2.042
 7946TIP3   OH247290   4.775   5.379   1.884
 7946TIP3    H147291   4.708   5.312   1.899
 7946TIP3    H247292   4.850   5.330   1.850
 7947TIP3   OH247293   5.222   5.345   1.926
 7947TIP3    H147294   5.235   5.264   1.976
 7947TIP3    H247295   5.297   5.348   1.867
 7948TIP3   OH247296   4.345   4.868   1.881
 7948TIP3    H147297   4.364   4.818   1.960
 7948TIP3    H247298   4.429   4.905   1.854
 7949TIP3   OH247299   4.936   5.046   1.871
 7949TIP3    H147300   4.883   5.045   1.950
 7949TIP3    H247301   4.915   4.964   1.827
 7950TIP3   OH247302   4.384   4.759   2.132
 7950TIP3    H147303   4.369   4.750   2.226
 7950TIP3    H247304   4.459   4.702   2.113
 7951TIP3   OH247305   4.580   4.628   1.980
 7951TIP3    H147306   4.567   4.654   1.889
 7951TIP3    H247307   4.676   4.626   1.991
 7952TIP3   OH247308   5.487   4.818   1.941
 7952TIP3    H147309   5.462   4.794   1.851
 7952TIP3    H247310   5.481   4.914   1.942
 7953TIP3   OH247311   4.557   5.617   2.045
 7953TIP3    H147312   4.653   5.615   2.050
 7953TIP3    H247313   4.537   5.699   2.001
 7954TIP3   OH247314   5.341   4.140   1.878
 7954TIP3    H147315   5.373   4.072   1.938
 7954TIP3    H247316   5.348   4.221   1.927
 7955TIP3   OH247317   5.492   3.972   2.031
 7955TIP3    H147318   5.561   3.924   1.986
 7955TIP3    H247319   5.538   4.047   2.070
 7956TIP3   OH247320   4.058   4.020   2.022
 7956TIP3    H147321   4.141   3.974   2.038
 7956TIP3    H247322   4.041   4.067   2.104
 7957TIP3   OH247323   4.835   5.605   2.028
 7957TIP3    H147324   4.904   5.580   2.088
 7957TIP3    H247325   4.816   5.525   1.979
 7958TIP3   OH247326   4.068   5.506   1.922
 7958TIP3    H147327   4.030   5.492   2.009
 7958TIP3    H247328   4.145   5.449   1.920
 7959TIP3   OH247329   6.752   4.588   1.965
 7959TIP3    H147330   6.755   4.583   2.061
 7959TIP3    H247331   6.812   4.520   1.936
 7960TIP3   OH247332   7.356   3.885   2.097
 7960TIP3    H147333   7.280   3.929   2.135
 7960TIP3    H247334   7.423   3.889   2.165
 7961TIP3   OH247335   6.297   4.211   1.982
 7961TIP3    H147336   6.326   4.134   1.932
 7961TIP3    H247337   6.247   4.262   1.918
 7962TIP3   OH247338   5.649   4.187   2.110
 7962TIP3    H147339   5.717   4.248   2.082
 7962TIP3    H247340   5.584   4.242   2.152
 7963TIP3   OH247341   6.727   5.092   2.153
 7963TIP3    H147342   6.746   5.181   2.181
 7963TIP3    H247343   6.653   5.064   2.208
 7964TIP3   OH247344   5.893   4.700   2.040
 7964TIP3    H147345   5.972   4.695   2.094
 7964TIP3    H247346   5.874   4.793   2.036
 7965TIP3   OH247347   7.083   5.084   2.031
 7965TIP3    H147348   7.054   5.137   2.106
 7965TIP3    H247349   7.003   5.067   1.982
 7966TIP3   OH247350   6.468   5.206   1.891
 7966TIP3    H147351   6.430   5.119   1.887
 7966TIP3    H247352   6.439   5.242   1.975
 7967TIP3   OH247353   6.028   5.161   1.942
 7967TIP3    H147354   6.056   5.214   2.016
 7967TIP3    H247355   6.090   5.089   1.938
 7968TIP3   OH247356   5.860   4.348   2.005
 7968TIP3    H147357   5.909   4.388   2.076
 7968TIP3    H247358   5.845   4.419   1.943
 7969TIP3   OH247359   6.671   5.389   1.860
 7969TIP3    H147360   6.606   5.321   1.879
 7969TIP3    H247361   6.750   5.341   1.838
 7970TIP3   OH247362   6.193   4.937   1.914
 7970TIP3    H147363   6.200   4.871   1.983
 7970TIP3    H247364   6.273   4.926   1.862
 7971TIP3   OH247365   6.841   5.049   1.906
 7971TIP3    H147366   6.785   5.059   1.982
 7971TIP3    H247367   6.810   4.969   1.863
 7972TIP3   OH247368   6.487   4.594   1.886
 7972TIP3    H147369   6.474   4.633   1.800
 7972TIP3    H247370   6.581   4.598   1.901
 7973TIP3   OH247371   7.380   4.840   1.915
 7973TIP3    H147372   7.323   4.800   1.850
 7973TIP3    H247373   7.347   4.929   1.925
 7974TIP3   OH247374   5.836   4.966   2.009
 7974TIP3    H147375   5.860   5.058   2.016
 7974TIP3    H247376   5.814   4.955   1.916
 7975TIP3   OH247377   7.331   4.365   1.895
 7975TIP3    H147378   7.283   4.393   1.817
 7975TIP3    H247379   7.294   4.280   1.916
 7976TIP3   OH247380   7.209   4.119   1.912
 7976TIP3    H147381   7.206   4.094   2.004
 7976TIP3    H247382   7.120   4.104   1.880
 7977TIP3   OH247383   5.943   5.491   1.932
 7977TIP3    H147384   5.915   5.460   2.019
 7977TIP3    H247385   6.031   5.457   1.921
 7978TIP3   OH247386   7.627   5.117   1.922
 7978TIP3    H147387   7.673   5.037   1.948
 7978TIP3    H247388   7.542   5.087   1.890
 7979TIP3   OH247389   1.098   6.417   1.919
 7979TIP3    H147390   1.083   6.409   2.013
 7979TIP3    H247391   1.177   6.366   1.902
 7980TIP3   OH247392   1.318   6.566   2.158
 7980TIP3    H147393   1.245   6.619   2.190
 7980TIP3    H247394   1.346   6.610   2.077
 7981TIP3   OH247395   1.644   5.693   2.205
 7981TIP3    H147396   1.562   5.679   2.251
 7981TIP3    H247397   1.673   5.780   2.233
 7982TIP3   OH247398   1.324   7.412   2.035
 7982TIP3    H147399   1.373   7.330   2.041
 7982TIP3    H247400   1.355   7.464   2.110
 7983TIP3   OH247401   1.462   6.696   1.926
 7983TIP3    H147402   1.374   6.713   1.894
 7983TIP3    H247403   1.489   6.616   1.880
 7984TIP3   OH247404   0.981   6.028   2.025
 7984TIP3    H147405   0.895   6.068   2.039
 7984TIP3    H247406   0.962   5.947   1.978
 7985TIP3   OH247407   0.667   6.063   1.952
 7985TIP3    H147408   0.608   6.001   1.995
 7985TIP3    H247409   0.641   6.149   1.985
 7986TIP3   OH247410   1.254   6.036   2.090
 7986TIP3    H147411   1.159   6.045   2.082
 7986TIP3    H247412   1.283   6.119   2.128
 7987TIP3   OH247413   1.381   6.275   2.173
 7987TIP3    H147414   1.471   6.261   2.201
 7987TIP3    H247415   1.370   6.370   2.174
 7988TIP3   OH247416   0.249   6.596   2.054
 7988TIP3    H147417   0.331   6.627   2.094
 7988TIP3    H247418   0.200   6.557   2.127
 7989TIP3   OH247419   0.780   7.061   1.931
 7989TIP3    H147420   0.749   6.987   1.879
 7989TIP3    H247421   0.712   7.074   1.997
 7990TIP3   OH247422   0.507   5.938   2.145
 7990TIP3    H147423   0.494   6.023   2.186
 7990TIP3    H247424   0.566   5.891   2.204
 7991TIP3   OH247425   1.017   7.206   1.918
 7991TIP3    H147426   0.931   7.164   1.924
 7991TIP3    H247427   1.069   7.165   1.988
 7992TIP3   OH247428   1.461   7.172   1.987
 7992TIP3    H147429   1.401   7.108   2.025
 7992TIP3    H247430   1.432   7.182   1.896
 7993TIP3   OH247431   0.615   6.802   1.889
 7993TIP3    H147432   0.556   6.802   1.965
 7993TIP3    H247433   0.672   6.727   1.903
 7994TIP3   OH247434   0.741   6.444   1.869
 7994TIP3    H147435   0.670   6.463   1.930
 7994TIP3    H247436   0.813   6.413   1.925
 7995TIP3   OH247437   1.597   6.348   1.926
 7995TIP3    H147438   1.613   6.312   1.839
 7995TIP3    H247439   1.627   6.280   1.986
 7996TIP3   OH247440   1.621   6.040   1.891
 7996TIP3    H147441   1.624   6.009   1.981
 7996TIP3    H247442   1.534   6.017   1.860
 7997TIP3   OH247443   0.113   5.678   2.192
 7997TIP3    H147444   0.174   5.704   2.123
 7997TIP3    H247445   0.057   5.754   2.205
 7998TIP3   OH247446   0.346   5.756   2.013
 7998TIP3    H147447   0.401   5.755   1.934
 7998TIP3    H247448   0.392   5.816   2.072
 7999TIP3   OH247449   0.303   7.374   1.993
 7999TIP3    H147450   0.262   7.445   2.041
 7999TIP3    H247451   0.322   7.307   2.059
 8000TIP3   OH247452   2.984   6.472   1.970
 8000TIP3    H147453   3.023   6.489   2.056
 8000TIP3    H247454   3.037   6.402   1.933
 8001TIP3   OH247455   3.207   6.502   2.148
 8001TIP3    H147456   3.261   6.448   2.206
 8001TIP3    H247457   3.268   6.563   2.108
 8002TIP3   OH247458   3.648   7.147   1.978
 8002TIP3    H147459   3.676   7.234   2.010
 8002TIP3    H247460   3.727   7.094   1.984
 8003TIP3   OH247461   3.364   6.692   2.013
 8003TIP3    H147462   3.339   6.672   1.923
 8003TIP3    H247463   3.457   6.670   2.018
 8004TIP3   OH247464   2.876   6.010   1.956
 8004TIP3    H147465   2.839   6.034   2.041
 8004TIP3    H247466   2.815   5.945   1.922
 8005TIP3   OH247467   3.737   7.402   2.063
 8005TIP3    H147468   3.791   7.477   2.087
 8005TIP3    H247469   3.647   7.433   2.074
 8006TIP3   OH247470   2.707   7.023   1.889
 8006TIP3    H147471   2.687   6.940   1.845
 8006TIP3    H247472   2.666   7.015   1.975
 8007TIP3   OH247473   2.583   7.019   2.146
 8007TIP3    H147474   2.598   6.967   2.224
 8007TIP3    H247475   2.571   7.109   2.178
 8008TIP3   OH247476   2.490   7.291   2.175
 8008TIP3    H147477   2.565   7.339   2.210
 8008TIP3    H247478   2.422   7.301   2.241
 8009TIP3   OH247479   2.311   7.021   2.060
 8009TIP3    H147480   2.258   7.057   2.131
 8009TIP3    H247481   2.398   7.008   2.100
 8010TIP3   OH247482   2.942   7.316   1.922
 8010TIP3    H147483   2.924   7.310   2.016
 8010TIP3    H247484   3.022   7.369   1.917
 8011TIP3   OH247485   3.354   7.259   1.904
 8011TIP3    H147486   3.405   7.257   1.985
 8011TIP3    H247487   3.418   7.247   1.835
 8012TIP3   OH247488   2.442   6.745   1.877
 8012TIP3    H147489   2.483   6.674   1.927
 8012TIP3    H247490   2.511   6.774   1.817
 8013TIP3   OH247491   2.986   6.890   1.916
 8013TIP3    H147492   2.972   6.855   2.004
 8013TIP3    H247493   3.004   6.813   1.862
 8014TIP3   OH247494   2.636   6.548   1.930
 8014TIP3    H147495   2.656   6.529   1.838
 8014TIP3    H247496   2.712   6.513   1.977
 8015TIP3   OH247497   3.605   6.741   1.853
 8015TIP3    H147498   3.602   6.655   1.810
 8015TIP3    H247499   3.619   6.803   1.781
 8016TIP3   OH247500   2.709   7.525   2.054
 8016TIP3    H147501   2.782   7.469   2.082
 8016TIP3    H247502   2.746   7.578   1.983
 8017TIP3   OH247503   2.004   6.986   1.985
 8017TIP3    H147504   2.068   6.968   2.054
 8017TIP3    H247505   1.985   6.900   1.947
 8018TIP3   OH247506   3.459   6.060   1.832
 8018TIP3    H147507   3.516   6.017   1.896
 8018TIP3    H247508   3.379   6.008   1.831
 8019TIP3   OH247509   3.584   5.882   1.997
 8019TIP3    H147510   3.637   5.825   1.942
 8019TIP3    H247511   3.596   5.848   2.086
 8020TIP3   OH247512   2.220   7.391   1.932
 8020TIP3    H147513   2.172   7.452   1.988
 8020TIP3    H247514   2.270   7.336   1.993
 8021TIP3   OH247515   5.073   6.612   2.187
 8021TIP3    H147516   5.140   6.634   2.253
 8021TIP3    H247517   5.119   6.621   2.103
 8022TIP3   OH247518   5.590   7.215   2.040
 8022TIP3    H147519   5.624   7.248   2.123
 8022TIP3    H247520   5.653   7.147   2.014
 8023TIP3   OH247521   5.205   6.647   1.948
 8023TIP3    H147522   5.185   6.617   1.860
 8023TIP3    H247523   5.301   6.651   1.951
 8024TIP3   OH247524   4.805   5.957   1.941
 8024TIP3    H147525   4.802   5.998   2.027
 8024TIP3    H247526   4.724   5.907   1.936
 8025TIP3   OH247527   4.386   6.067   1.903
 8025TIP3    H147528   4.310   6.025   1.943
 8025TIP3    H247529   4.355   6.153   1.877
 8026TIP3   OH247530   3.915   6.651   1.993
 8026TIP3    H147531   3.954   6.709   2.058
 8026TIP3    H247532   3.838   6.615   2.035
 8027TIP3   OH247533   4.554   7.078   1.881
 8027TIP3    H147534   4.564   7.004   1.821
 8027TIP3    H247535   4.557   7.039   1.968
 8028TIP3   OH247536   4.731   7.146   2.197
 8028TIP3    H147537   4.650   7.196   2.207
 8028TIP3    H247538   4.800   7.204   2.228
 8029TIP3   OH247539   4.505   7.307   2.236
 8029TIP3    H147540   4.534   7.380   2.291
 8029TIP3    H247541   4.450   7.254   2.294
 8030TIP3   OH247542   4.785   7.227   1.884
 8030TIP3    H147543   4.703   7.180   1.896
 8030TIP3    H247544   4.853   7.166   1.913
 8031TIP3   OH247545   5.227   7.212   1.936
 8031TIP3    H147546   5.206   7.211   2.029
 8031TIP3    H247547   5.184   7.290   1.902
 8032TIP3   OH247548   4.344   6.822   1.915
 8032TIP3    H147549   4.310   6.840   2.003
 8032TIP3    H247550   4.436   6.802   1.929
 8033TIP3   OH247551   4.893   6.936   1.829
 8033TIP3    H147552   4.812   6.916   1.877
 8033TIP3    H247553   4.923   6.851   1.797
 8034TIP3   OH247554   4.531   6.468   1.927
 8034TIP3    H147555   4.461   6.462   1.992
 8034TIP3    H247556   4.588   6.538   1.959
 8035TIP3   OH247557   5.485   6.693   1.916
 8035TIP3    H147558   5.477   6.675   1.822
 8035TIP3    H247559   5.469   6.787   1.924
 8036TIP3   OH247560   4.585   7.533   1.902
 8036TIP3    H147561   4.666   7.518   1.951
 8036TIP3    H247562   4.529   7.459   1.927
 8037TIP3   OH247563   3.885   7.004   1.982
 8037TIP3    H147564   3.922   6.963   2.060
 8037TIP3    H247565   3.888   6.935   1.915
 8038TIP3   OH247566   5.387   6.302   1.959
 8038TIP3    H147567   5.377   6.291   1.864
 8038TIP3    H247568   5.321   6.245   1.997
 8039TIP3   OH247569   5.305   5.984   1.803
 8039TIP3    H147570   5.295   6.045   1.876
 8039TIP3    H247571   5.215   5.967   1.774
 8040TIP3   OH247572   5.506   5.911   2.057
 8040TIP3    H147573   5.575   5.870   2.006
 8040TIP3    H247574   5.544   5.993   2.087
 8041TIP3   OH247575   4.163   5.920   1.982
 8041TIP3    H147576   4.190   5.842   1.934
 8041TIP3    H247577   4.134   5.886   2.067
 8042TIP3   OH247578   4.808   7.449   2.049
 8042TIP3    H147579   4.849   7.422   2.131
 8042TIP3    H247580   4.810   7.369   1.995
 8043TIP3   OH247581   4.078   7.361   1.989
 8043TIP3    H147582   4.022   7.292   2.025
 8043TIP3    H247583   4.167   7.328   2.004
 8044TIP3   OH247584   6.720   6.456   1.972
 8044TIP3    H147585   6.734   6.485   2.062
 8044TIP3    H247586   6.794   6.399   1.953
 8045TIP3   OH247587   6.961   6.459   2.148
 8045TIP3    H147588   7.022   6.480   2.219
 8045TIP3    H247589   6.978   6.526   2.082
 8046TIP3   OH247590   7.188   5.774   2.029
 8046TIP3    H147591   7.180   5.681   2.046
 8046TIP3    H247592   7.257   5.804   2.089
 8047TIP3   OH247593   7.061   6.640   1.959
 8047TIP3    H147594   7.133   6.590   1.920
 8047TIP3    H247595   7.104   6.702   2.018
 8048TIP3   OH247596   6.673   5.949   1.938
 8048TIP3    H147597   6.665   5.916   2.027
 8048TIP3    H247598   6.601   5.907   1.890
 8049TIP3   OH247599   6.269   6.043   1.942
 8049TIP3    H147600   6.314   6.061   2.025
 8049TIP3    H247601   6.243   6.129   1.909
 8050TIP3   OH247602   7.416   6.288   2.139
 8050TIP3    H147603   7.339   6.270   2.192
 8050TIP3    H247604   7.429   6.383   2.147
 8051TIP3   OH247605   6.459   7.074   1.857
 8051TIP3    H147606   6.472   6.989   1.816
 8051TIP3    H247607   6.400   7.056   1.931
 8052TIP3   OH247608   6.299   7.017   2.079
 8052TIP3    H147609   6.369   6.966   2.119
 8052TIP3    H247610   6.312   7.105   2.113
 8053TIP3   OH247611   6.389   7.266   2.174
 8053TIP3    H147612   6.384   7.355   2.137
 8053TIP3    H247613   6.425   7.280   2.262
 8054TIP3   OH247614   6.197   6.831   1.887
 8054TIP3    H147615   6.216   6.892   1.959
 8054TIP3    H247616   6.283   6.812   1.848
 8055TIP3   OH247617   6.743   6.931   1.878
 8055TIP3    H147618   6.673   6.915   1.942
 8055TIP3    H247619   6.774   6.845   1.853
 8056TIP3   OH247620   6.440   6.437   1.924
 8056TIP3    H147621   6.437   6.480   1.839
 8056TIP3    H247622   6.533   6.439   1.950
 8057TIP3   OH247623   7.368   6.707   1.921
 8057TIP3    H147624   7.331   6.695   1.834
 8057TIP3    H247625   7.346   6.797   1.945
 8058TIP3   OH247626   6.420   7.531   2.103
 8058TIP3    H147627   6.496   7.544   2.159
 8058TIP3    H247628   6.356   7.595   2.134
 8059TIP3   OH247629   5.739   6.984   1.991
 8059TIP3    H147630   5.771   6.915   1.932
 8059TIP3    H247631   5.672   6.940   2.044
 8060TIP3   OH247632   7.466   6.555   2.129
 8060TIP3    H147633   7.430   6.607   2.058
 8060TIP3    H247634   7.477   6.617   2.201
 8061TIP3   OH247635   7.216   6.301   1.911
 8061TIP3    H147636   7.272   6.334   1.981
 8061TIP3    H247637   7.222   6.206   1.917
 8062TIP3   OH247638   7.206   6.033   1.906
 8062TIP3    H147639   7.256   5.976   1.964
 8062TIP3    H247640   7.120   5.991   1.900
 8063TIP3   OH247641   7.433   5.922   2.066
 8063TIP3    H147642   7.476   5.859   2.008
 8063TIP3    H247643   7.475   6.005   2.046
 8064TIP3   OH247644   5.942   7.335   1.893
 8064TIP3    H147645   5.927   7.403   1.959
 8064TIP3    H247646   6.037   7.324   1.891
 8065TIP3   OH247647   7.673   5.919   2.232
 8065TIP3    H147648   7.668   6.000   2.180
 8065TIP3    H247649   7.582   5.895   2.247
 8066TIP3   OH247650   7.637   7.024   1.833
 8066TIP3    H147651   7.678   7.054   1.914
 8066TIP3    H247652   7.646   6.929   1.835
 8067TIP3   OH247653   1.655   7.444   2.112
 8067TIP3    H147654   1.572   7.470   2.154
 8067TIP3    H247655   1.709   7.523   2.116
 8068TIP3   OH247656   0.200   7.611   2.087
 8068TIP3    H147657   0.231   7.674   2.152
 8068TIP3    H247658   0.115   7.581   2.121
 8069TIP3   OH247659   3.478   7.502   2.098
 8069TIP3    H147660   3.414   7.465   2.159
 8069TIP3    H247661   3.479   7.596   2.118
 8070TIP3   OH247662   2.074   7.557   2.090
 8070TIP3    H147663   2.044   7.639   2.129
 8070TIP3    H247664   2.067   7.493   2.160
 8071TIP3   OH247665   3.972   7.596   2.109
 8071TIP3    H147666   4.009   7.523   2.060
 8071TIP3    H247667   4.024   7.599   2.190
 8072DM2     C147668   3.956   3.514   7.159
 8072DM2     C247669   3.899   3.392   7.123
 8072DM2     C347670   3.800   3.336   7.204
 8072DM2     C447671   3.756   3.402   7.320
 8072DM2     O547672   3.661   3.344   7.406
 8072DM2     C647673   3.815   3.526   7.357
 8072DM2     C747674   3.764   3.605   7.475
 8072DM2     O847675   3.658   3.575   7.532
 8072DM2     C947676   3.848   3.722   7.520
 8072DM2    C1047677   3.819   3.788   7.642
 8072DM2    O1147678   3.713   3.741   7.724
 8072DM2    C1247679   3.893   3.901   7.683
 8072DM2    C1347680   3.860   3.968   7.818
 8072DM2    O1447681   3.874   3.874   7.924
 8072DM2    C1547682   3.955   4.085   7.849
 8072DM2    C1647683   3.992   4.172   7.727
 8072DM2    O1747684   4.087   4.267   7.774
 8072DM2    C1847685   3.875   4.252   7.665
 8072DM2    O1947686   3.771   4.174   7.603
 8072DM2    C2047687   3.811   4.348   7.768
 8072DM2    O2147688   3.709   4.430   7.710
 8072DM2    C2247689   4.066   4.082   7.627
 8072DM2    C2347690   3.992   3.954   7.597
 8072DM2    C2447691   4.025   3.885   7.479
 8072DM2    O2547692   4.133   3.937   7.401
 8072DM2    C2647693   3.954   3.769   7.440
 8072DM2    C2747694   3.996   3.699   7.316
 8072DM2    O2847695   4.093   3.737   7.250
 8072DM2    C2947696   3.918   3.580   7.277
 8072DM2    C3047697   3.632   3.207   7.384
 8072DM2    C3147698   3.761   3.868   8.011
 8072DM2    C3247699   3.771   3.741   8.097
 8072DM2    C3347700   3.879   3.752   8.205
 8072DM2    N3447701   3.883   3.625   8.284
 8072DM2    C3547702   3.857   3.880   8.287
 8072DM2    O3647703   3.738   3.878   8.368
 8072DM2    C3747704   3.852   3.997   8.188
 8072DM2    O3847705   3.748   3.985   8.091
 8072DM2    C3947706   3.836   4.131   8.262
 8072DM2    H4047707   4.033   3.557   7.097
 8072DM2    H4147708   3.934   3.341   7.035
 8072DM2    H4247709   3.761   3.241   7.171
 8072DM2    H4347710   3.690   3.654   7.690
 8072DM2    H4447711   3.756   4.007   7.813
 8072DM2    H4547712   4.049   4.042   7.889
 8072DM2    H4647713   3.911   4.147   7.930
 8072DM2    H4747714   4.119   4.312   7.696
 8072DM2    H4847715   3.766   4.289   7.850
 8072DM2    H4947716   3.888   4.415   7.811
 8072DM2    H5047717   3.665   4.472   7.784
 8072DM2    H5147718   4.166   4.053   7.667
 8072DM2    H5247719   4.081   4.140   7.533
 8072DM2    H5347720   4.139   3.881   7.323
 8072DM2    H5447721   3.565   3.173   7.466
 8072DM2    H5547722   3.580   3.192   7.287
 8072DM2    H5647723   3.725   3.146   7.387
 8072DM2    H5747724   3.670   3.860   7.949
 8072DM2    H5847725   3.673   3.725   8.148
 8072DM2    H5947726   3.791   3.654   8.032
 8072DM2    H6047727   3.976   3.764   8.153
 8072DM2    H6147728   3.939   3.556   8.235
 8072DM2    H6247729   3.936   3.639   8.370
 8072DM2    H6347730   3.944   3.894   8.354
 8072DM2    H6447731   3.753   3.942   8.438
 8072DM2    H6547732   3.950   4.000   8.134
 8072DM2    H6647733   3.834   4.214   8.188
 8072DM2    H6747734   3.742   4.134   8.320
 8072DM2    H6847735   3.921   4.148   8.332
 8072DM2    H6947736   3.918   4.315   7.583
 8072DM2    H7047737   3.702   4.240   7.591
   7.70779   7.70779   8.50000
