[ moleculetype ]
; Name            nrexcl
Other               3
;
[ atoms ]
;   nr       type  resnr residue  atom   cgnr     charge       mass  typeB    chargeB      massB
; residue   1 DM2 rtp DM2  q +0.0
     1     CG2R61      1    DM2     C1      1     -0.116     12.011   ; qtot -0.116
     2     CG2R61      1    DM2     C2      2     -0.108     12.011   ; qtot -0.108
     3     CG2R61      1    DM2     C3      3     -0.116     12.011   ; qtot -0.116
     4     CG2R61      1    DM2     C4      4     -0.184     12.011   ; qtot -0.184
     5      OG301      1    DM2     O5      5     -0.132    15.9994   ; qtot -0.132
     6     CG2R61      1    DM2     C6      6      0.279     12.011   ; qtot 0.279
     7      CG2O5      1    DM2     C7      7      0.175     12.011   ; qtot 0.175
     8      OG2D3      1    DM2     O8      8     -0.448    15.9994   ; qtot -0.448
     9     CG2R61      1    DM2     C9      9       0.13     12.011   ; qtot 0.13
    10     CG2R61      1    DM2    C10     10      0.111     12.011   ; qtot 0.111
    11      OG311      1    DM2    O11     11     -0.543    15.9994   ; qtot -0.543
    12     CG2R61      1    DM2    C12     12     -0.011     12.011   ; qtot -0.011
    13      CG311      1    DM2    C13     13      0.109     12.011   ; qtot 0.109
    14      OG301      1    DM2    O14     14     -0.377    15.9994   ; qtot -0.377
    15      CG321      1    DM2    C15     15     -0.149     12.011   ; qtot -0.149
    16      CG301      1    DM2    C16     16       0.42     12.011   ; qtot 0.42
    17      OG311      1    DM2    O17     17     -0.518    15.9994   ; qtot -0.518
    18      CG311      1    DM2    C18     18      0.025     12.011   ; qtot 0.025
    19      OG311      1    DM2    O19     19     -0.626    15.9994   ; qtot -0.626
    20      CG321      1    DM2    C20     20      0.057     12.011   ; qtot 0.057
    21      OG311      1    DM2    O21     21     -0.652    15.9994   ; qtot -0.652
    22      CG321      1    DM2    C22     22     -0.163     12.011   ; qtot -0.163
    23     CG2R61      1    DM2    C23     23     -0.041     12.011   ; qtot -0.041
    24     CG2R61      1    DM2    C24     24      0.098     12.011   ; qtot 0.098
    25      OG311      1    DM2    O25     25     -0.543    15.9994   ; qtot -0.543
    26     CG2R61      1    DM2    C26     26      0.132     12.011   ; qtot 0.132
    27      CG2O5      1    DM2    C27     27      0.188     12.011   ; qtot 0.188
    28      OG2D3      1    DM2    O28     28     -0.448    15.9994   ; qtot -0.448
    29     CG2R61      1    DM2    C29     29       0.13     12.011   ; qtot 0.13
    30      CG331      1    DM2    C30     30     -0.094     12.011   ; qtot -0.094
    31      CG311      1    DM2    C31     31      0.174     12.011   ; qtot 0.174
    32      CG321      1    DM2    C32     32     -0.173     12.011   ; qtot -0.173
    33      CG311      1    DM2    C33     33      0.127     12.011   ; qtot 0.127
    34      NG321      1    DM2    N34     34     -0.989     14.007   ; qtot -0.989
    35      CG311      1    DM2    C35     35      0.077     12.011   ; qtot 0.077
    36      OG311      1    DM2    O36     36     -0.636    15.9994   ; qtot -0.636
    37      CG311      1    DM2    C37     37      0.087     12.011   ; qtot 0.087
    38     OG3C61      1    DM2    O38     38     -0.374    15.9994   ; qtot -0.374
    39      CG331      1    DM2    C39     39     -0.205     12.011   ; qtot -0.205
    40      HGR61      1    DM2    H40     40      0.116      1.008   ; qtot 0.116
    41      HGR61      1    DM2    H41     41      0.116      1.008   ; qtot 0.116
    42      HGR61      1    DM2    H42     42      0.116      1.008   ; qtot 0.116
    43       HGP1      1    DM2    H43     43      0.421      1.008   ; qtot 0.421
    44       HGA1      1    DM2    H44     44       0.09      1.008   ; qtot 0.09
    45       HGA2      1    DM2    H45     45       0.09      1.008   ; qtot 0.09
    46       HGA2      1    DM2    H46     46       0.09      1.008   ; qtot 0.09
    47       HGP1      1    DM2    H47     47       0.32      1.008   ; qtot 0.32
    48       HGA2      1    DM2    H48     48       0.09      1.008   ; qtot 0.09
    49       HGA2      1    DM2    H49     49       0.09      1.008   ; qtot 0.09
    50       HGP1      1    DM2    H50     50      0.417      1.008   ; qtot 0.417
    51       HGA2      1    DM2    H51     51       0.09      1.008   ; qtot 0.09
    52       HGA2      1    DM2    H52     52       0.09      1.008   ; qtot 0.09
    53       HGP1      1    DM2    H53     53      0.421      1.008   ; qtot 0.421
    54       HGA3      1    DM2    H54     54       0.09      1.008   ; qtot 0.09
    55       HGA3      1    DM2    H55     55       0.09      1.008   ; qtot 0.09
    56       HGA3      1    DM2    H56     56       0.09      1.008   ; qtot 0.09
    57       HGA1      1    DM2    H57     57       0.09      1.008   ; qtot 0.09
    58       HGA2      1    DM2    H58     58       0.09      1.008   ; qtot 0.09
    59       HGA2      1    DM2    H59     59       0.09      1.008   ; qtot 0.09
    60       HGA1      1    DM2    H60     60       0.09      1.008   ; qtot 0.09
    61     HGPAM2      1    DM2    H61     61      0.389      1.008   ; qtot 0.389
    62     HGPAM2      1    DM2    H62     62      0.389      1.008   ; qtot 0.389
    63       HGA1      1    DM2    H63     63       0.09      1.008   ; qtot 0.09
    64       HGP1      1    DM2    H64     64      0.422      1.008   ; qtot 0.422
    65       HGA1      1    DM2    H65     65       0.09      1.008   ; qtot 0.09
    66       HGA3      1    DM2    H66     66       0.09      1.008   ; qtot 0.09
    67       HGA3      1    DM2    H67     67       0.09      1.008   ; qtot 0.09
    68       HGA3      1    DM2    H68     68       0.09      1.008   ; qtot 0.09
    69       HGA1      1    DM2    H69     69       0.09      1.008   ; qtot 0.09
    70       HGP1      1    DM2    H70     70        0.4      1.008   ; qtot 0.4

[ bonds ]
;  ai    aj funct            c0            c1            c2            c3
    1     2     1
    1    29     1
    1    40     1
    2     3     1
    2    41     1
    3     4     1
    3    42     1
    4     5     1
    4     6     1
    5    30     1
    6     7     1
    6    29     1
    7     8     1
    7     9     1
    9    10     1
    9    26     1
   10    11     1
   10    12     1
   11    43     1
   12    13     1
   12    23     1
   13    14     1
   13    15     1
   13    44     1
   14    31     1
   15    16     1
   15    45     1
   15    46     1
   16    17     1
   16    18     1
   16    22     1
   17    47     1
   18    19     1
   18    20     1
   20    21     1
   20    48     1
   20    49     1
   21    50     1
   22    23     1
   22    51     1
   22    52     1
   23    24     1
   24    25     1
   24    26     1
   25    53     1
   26    27     1
   27    28     1
   27    29     1
   30    54     1
   30    55     1
   30    56     1
   31    32     1
   31    38     1
   31    57     1
   32    33     1
   32    58     1
   32    59     1
   33    34     1
   33    35     1
   33    60     1
   34    61     1
   34    62     1
   35    36     1
   35    37     1
   35    63     1
   36    64     1
   37    38     1
   37    39     1
   37    65     1
   39    66     1
   39    67     1
   39    68     1
   18    69     1
   19    70     1

[ pairs ]
;  ai    aj funct            c0            c1            c2            c3
    1     4     1
    1     7     1
    1    26     1
    1    28     1
    1    42     1
    2     5     1
    2     6     1
    2    27     1
    3     7     1
    3    29     1
    3    30     1
    3    40     1
    4     8     1
    4     9     1
    4    27     1
    4    41     1
    4    54     1
    4    55     1
    4    56     1
    5     7     1
    5    29     1
    5    42     1
    6    10     1
    6    26     1
    6    28     1
    6    30     1
    6    40     1
    6    42     1
    7    11     1
    7    12     1
    7    24     1
    7    27     1
    8    10     1
    8    26     1
    8    29     1
    9    13     1
    9    23     1
    9    25     1
    9    28     1
    9    29     1
    9    43     1
   10    14     1
   10    15     1
   10    22     1
   10    24     1
   10    27     1
   10    44     1
   11    13     1
   11    23     1
   11    26     1
   12    16     1
   12    25     1
   12    26     1
   12    31     1
   12    43     1
   12    45     1
   12    46     1
   12    51     1
   12    52     1
   13    17     1
   13    18     1
   13    22     1
   13    24     1
   13    32     1
   13    38     1
   13    57     1
   14    16     1
   14    23     1
   14    33     1
   14    37     1
   14    45     1
   14    46     1
   14    58     1
   14    59     1
   15    19     1
   15    20     1
   15    23     1
   15    31     1
   15    47     1
   15    51     1
   15    52     1
   15    69     1
   16    21     1
   16    24     1
   16    44     1
   16    48     1
   16    49     1
   16    70     1
   17    19     1
   17    20     1
   17    23     1
   17    45     1
   17    46     1
   17    51     1
   17    52     1
   17    69     1
   18    23     1
   18    45     1
   18    46     1
   18    47     1
   18    50     1
   18    51     1
   18    52     1
   19    21     1
   19    22     1
   19    48     1
   19    49     1
   20    22     1
   20    70     1
   21    69     1
   22    25     1
   22    26     1
   22    45     1
   22    46     1
   22    47     1
   22    69     1
   23    27     1
   23    44     1
   23    53     1
   24    28     1
   24    29     1
   24    51     1
   24    52     1
   25    27     1
   26    53     1
   27    40     1
   29    41     1
   31    34     1
   31    35     1
   31    39     1
   31    44     1
   31    60     1
   31    65     1
   32    36     1
   32    37     1
   32    61     1
   32    62     1
   32    63     1
   33    38     1
   33    39     1
   33    57     1
   33    64     1
   33    65     1
   34    36     1
   34    37     1
   34    58     1
   34    59     1
   34    63     1
   35    58     1
   35    59     1
   35    61     1
   35    62     1
   35    66     1
   35    67     1
   35    68     1
   36    38     1
   36    39     1
   36    60     1
   36    65     1
   37    57     1
   37    60     1
   37    64     1
   38    58     1
   38    59     1
   38    63     1
   38    66     1
   38    67     1
   38    68     1
   39    63     1
   40    41     1
   41    42     1
   44    45     1
   44    46     1
   48    50     1
   48    69     1
   49    50     1
   49    69     1
   57    58     1
   57    59     1
   58    60     1
   59    60     1
   60    61     1
   60    62     1
   60    63     1
   63    64     1
   63    65     1
   65    66     1
   65    67     1
   65    68     1
   69    70     1

[ angles ]
;  ai    aj    ak funct            c0            c1            c2            c3
    2     1    29     5
    2     1    40     5
   29     1    40     5
    1     2     3     5
    1     2    41     5
    3     2    41     5
    2     3     4     5
    2     3    42     5
    4     3    42     5
    3     4     5     5
    3     4     6     5
    5     4     6     5
    4     5    30     5
    4     6     7     5
    4     6    29     5
    7     6    29     5
    6     7     8     5
    6     7     9     5
    8     7     9     5
    7     9    10     5
    7     9    26     5
   10     9    26     5
    9    10    11     5
    9    10    12     5
   11    10    12     5
   10    11    43     5
   10    12    13     5
   10    12    23     5
   13    12    23     5
   12    13    14     5
   12    13    15     5
   12    13    44     5
   14    13    15     5
   14    13    44     5
   15    13    44     5
   13    14    31     5
   13    15    16     5
   13    15    45     5
   13    15    46     5
   16    15    45     5
   16    15    46     5
   45    15    46     5
   15    16    17     5
   15    16    18     5
   15    16    22     5
   17    16    18     5
   17    16    22     5
   18    16    22     5
   16    17    47     5
   16    18    19     5
   16    18    20     5
   16    18    69     5
   19    18    20     5
   19    18    69     5
   20    18    69     5
   18    19    70     5
   18    20    21     5
   18    20    48     5
   18    20    49     5
   21    20    48     5
   21    20    49     5
   48    20    49     5
   20    21    50     5
   16    22    23     5
   16    22    51     5
   16    22    52     5
   23    22    51     5
   23    22    52     5
   51    22    52     5
   12    23    22     5
   12    23    24     5
   22    23    24     5
   23    24    25     5
   23    24    26     5
   25    24    26     5
   24    25    53     5
    9    26    24     5
    9    26    27     5
   24    26    27     5
   26    27    28     5
   26    27    29     5
   28    27    29     5
    1    29     6     5
    1    29    27     5
    6    29    27     5
    5    30    54     5
    5    30    55     5
    5    30    56     5
   54    30    55     5
   54    30    56     5
   55    30    56     5
   14    31    32     5
   14    31    38     5
   14    31    57     5
   32    31    38     5
   32    31    57     5
   38    31    57     5
   31    32    33     5
   31    32    58     5
   31    32    59     5
   33    32    58     5
   33    32    59     5
   58    32    59     5
   32    33    34     5
   32    33    35     5
   32    33    60     5
   34    33    35     5
   34    33    60     5
   35    33    60     5
   33    34    61     5
   33    34    62     5
   61    34    62     5
   33    35    36     5
   33    35    37     5
   33    35    63     5
   36    35    37     5
   36    35    63     5
   37    35    63     5
   35    36    64     5
   35    37    38     5
   35    37    39     5
   35    37    65     5
   38    37    39     5
   38    37    65     5
   39    37    65     5
   31    38    37     5
   37    39    66     5
   37    39    67     5
   37    39    68     5
   66    39    67     5
   66    39    68     5
   67    39    68     5

[ dihedrals ]
;  ai    aj    ak    al funct            c0            c1            c2            c3            c4            c5
   29     1     2     3     9
   29     1     2    41     9
   40     1     2     3     9
   40     1     2    41     9
    2     1    29     6     9
    2     1    29    27     9
   40     1    29     6     9
   40     1    29    27     9
    1     2     3     4     9
    1     2     3    42     9
   41     2     3     4     9
   41     2     3    42     9
    2     3     4     5     9
    2     3     4     6     9
   42     3     4     5     9
   42     3     4     6     9
    3     4     5    30     9
    6     4     5    30     9
    3     4     6     7     9
    3     4     6    29     9
    5     4     6     7     9
    5     4     6    29     9
    4     5    30    54     9
    4     5    30    55     9
    4     5    30    56     9
    4     6     7     8     9
    4     6     7     9     9
   29     6     7     8     9
   29     6     7     9     9
    4     6    29     1     9
    4     6    29    27     9
    7     6    29     1     9
    7     6    29    27     9
    6     7     9    10     9
    6     7     9    26     9
    8     7     9    10     9
    8     7     9    26     9
    7     9    10    11     9
    7     9    10    12     9
   26     9    10    11     9
   26     9    10    12     9
    7     9    26    24     9
    7     9    26    27     9
   10     9    26    24     9
   10     9    26    27     9
    9    10    11    43     9
   12    10    11    43     9
    9    10    12    13     9
    9    10    12    23     9
   11    10    12    13     9
   11    10    12    23     9
   10    12    13    14     9
   10    12    13    15     9
   10    12    13    44     9
   23    12    13    14     9
   23    12    13    15     9
   23    12    13    44     9
   10    12    23    22     9
   10    12    23    24     9
   13    12    23    22     9
   13    12    23    24     9
   12    13    14    31     9
   15    13    14    31     9
   44    13    14    31     9
   12    13    15    16     9
   12    13    15    45     9
   12    13    15    46     9
   14    13    15    16     9
   14    13    15    45     9
   14    13    15    46     9
   44    13    15    16     9
   44    13    15    45     9
   44    13    15    46     9
   13    14    31    32     9
   13    14    31    38     9
   13    14    31    57     9
   13    15    16    17     9
   13    15    16    18     9
   13    15    16    22     9
   45    15    16    17     9
   45    15    16    18     9
   45    15    16    22     9
   46    15    16    17     9
   46    15    16    18     9
   46    15    16    22     9
   15    16    17    47     9
   18    16    17    47     9
   22    16    17    47     9
   15    16    18    19     9
   15    16    18    20     9
   15    16    18    69     9
   17    16    18    19     9
   17    16    18    20     9
   17    16    18    69     9
   22    16    18    19     9
   22    16    18    20     9
   22    16    18    69     9
   15    16    22    23     9
   15    16    22    51     9
   15    16    22    52     9
   17    16    22    23     9
   17    16    22    51     9
   17    16    22    52     9
   18    16    22    23     9
   18    16    22    51     9
   18    16    22    52     9
   16    18    19    70     9
   20    18    19    70     9
   69    18    19    70     9
   16    18    20    21     9
   16    18    20    48     9
   16    18    20    49     9
   19    18    20    21     9
   19    18    20    48     9
   19    18    20    49     9
   69    18    20    21     9
   69    18    20    48     9
   69    18    20    49     9
   18    20    21    50     9
   48    20    21    50     9
   49    20    21    50     9
   16    22    23    12     9
   16    22    23    24     9
   51    22    23    12     9
   51    22    23    24     9
   52    22    23    12     9
   52    22    23    24     9
   12    23    24    25     9
   12    23    24    26     9
   22    23    24    25     9
   22    23    24    26     9
   23    24    25    53     9
   26    24    25    53     9
   23    24    26     9     9
   23    24    26    27     9
   25    24    26     9     9
   25    24    26    27     9
    9    26    27    28     9
    9    26    27    29     9
   24    26    27    28     9
   24    26    27    29     9
   26    27    29     1     9
   26    27    29     6     9
   28    27    29     1     9
   28    27    29     6     9
   14    31    32    33     9
   14    31    32    58     9
   14    31    32    59     9
   38    31    32    33     9
   38    31    32    58     9
   38    31    32    59     9
   57    31    32    33     9
   57    31    32    58     9
   57    31    32    59     9
   14    31    38    37     9
   32    31    38    37     9
   57    31    38    37     9
   31    32    33    34     9
   31    32    33    35     9
   31    32    33    60     9
   58    32    33    34     9
   58    32    33    35     9
   58    32    33    60     9
   59    32    33    34     9
   59    32    33    35     9
   59    32    33    60     9
   32    33    34    61     9
   32    33    34    62     9
   35    33    34    61     9
   35    33    34    62     9
   60    33    34    61     9
   60    33    34    62     9
   32    33    35    36     9
   32    33    35    37     9
   32    33    35    63     9
   34    33    35    36     9
   34    33    35    37     9
   34    33    35    63     9
   60    33    35    36     9
   60    33    35    37     9
   60    33    35    63     9
   33    35    36    64     9
   37    35    36    64     9
   63    35    36    64     9
   33    35    37    38     9
   33    35    37    39     9
   33    35    37    65     9
   36    35    37    38     9
   36    35    37    39     9
   36    35    37    65     9
   63    35    37    38     9
   63    35    37    39     9
   63    35    37    65     9
   35    37    38    31     9
   39    37    38    31     9
   65    37    38    31     9
   35    37    39    66     9
   35    37    39    67     9
   35    37    39    68     9
   38    37    39    66     9
   38    37    39    67     9
   38    37    39    68     9
   65    37    39    66     9
   65    37    39    67     9
   65    37    39    68     9

[ dihedrals ]
;  ai    aj    ak    al funct            c0            c1            c2            c3            c4            c5
    7     6     9     8     2
   27    26    29    28     2




