Gromacs Runs One Microsecond At Cannonball Speeds
   70
    1DM2     C1    1  -0.074  -0.075   0.668
    1DM2     C2    2   0.016  -0.035   0.766
    1DM2     C3    3   0.133   0.031   0.729
    1DM2     C4    4   0.162   0.057   0.594
    1DM2     O5    5   0.275   0.122   0.553
    1DM2     C6    6   0.070   0.015   0.495
    1DM2     C7    7   0.094   0.038   0.350
    1DM2     O8    8   0.197   0.089   0.308
    1DM2     C9    9  -0.008  -0.002   0.249
    1DM2    C10   10   0.012   0.024   0.112
    1DM2    O11   11   0.124   0.091   0.068
    1DM2    C12   12  -0.083  -0.015   0.015
    1DM2    C13   13  -0.058   0.013  -0.133
    1DM2    O14   14   0.069  -0.043  -0.170
    1DM2    C15   15  -0.161  -0.052  -0.225
    1DM2    C16   16  -0.305  -0.037  -0.177
    1DM2    O17   17  -0.387  -0.112  -0.269
    1DM2    C18   18  -0.360   0.108  -0.175
    1DM2    O19   19  -0.296   0.191  -0.077
    1DM2    C20   20  -0.350   0.179  -0.311
    1DM2    O21   21  -0.409   0.309  -0.297
    1DM2    C22   22  -0.315  -0.106  -0.039
    1DM2    C23   23  -0.204  -0.072   0.059
    1DM2    C24   24  -0.222  -0.100   0.195
    1DM2    O25   25  -0.339  -0.162   0.231
    1DM2    C26   26  -0.125  -0.065   0.290
    1DM2    C27   27  -0.146  -0.094   0.433
    1DM2    O28   28  -0.248  -0.153   0.468
    1DM2    C29   29  -0.048  -0.050   0.533
    1DM2    C30   30   0.371   0.161   0.650
    1DM2    C31   31   0.151   0.049  -0.242
    1DM2    C32   32   0.297   0.002  -0.236
    1DM2    C33   33   0.315  -0.126  -0.318
    1DM2    N34   34   0.456  -0.169  -0.313
    1DM2    C35   35   0.265  -0.102  -0.463
    1DM2    O36   36   0.348  -0.005  -0.528
    1DM2    C37   37   0.118  -0.054  -0.456
    1DM2    O38   38   0.105   0.065  -0.376
    1DM2    C39   39   0.061  -0.022  -0.593
    1DM2    H40   40  -0.166  -0.126   0.698
    1DM2    H41   41  -0.005  -0.054   0.871
    1DM2    H42   42   0.201   0.062   0.808
    1DM2    H43   43   0.183   0.107   0.145
    1DM2    H44   44  -0.059   0.122  -0.147
    1DM2    H45   45  -0.138  -0.159  -0.236
    1DM2    H46   46  -0.150  -0.013  -0.327
    1DM2    H47   47  -0.473  -0.128  -0.227
    1DM2    H48   48  -0.245   0.195  -0.340
    1DM2    H49   49  -0.403   0.125  -0.389
    1DM2    H50   50  -0.400   0.353  -0.384
    1DM2    H51   51  -0.315  -0.215  -0.052
    1DM2    H52   52  -0.412  -0.081   0.005
    1DM2    H53   53  -0.339  -0.177   0.328
    1DM2    H54   54   0.454   0.208   0.597
    1DM2    H55   55   0.329   0.234   0.719
    1DM2    H56   56   0.410   0.073   0.703
    1DM2    H57   57   0.147   0.148  -0.194
    1DM2    H58   58   0.362   0.081  -0.275
    1DM2    H59   59   0.325  -0.017  -0.132
    1DM2    H60   60   0.255  -0.206  -0.274
    1DM2    H61   61   0.481  -0.193  -0.217
    1DM2    H62   62   0.469  -0.253  -0.369
    1DM2    H63   63   0.271  -0.195  -0.520
    1DM2    H64   64   0.321   0.000  -0.621
    1DM2    H65   65   0.057  -0.133  -0.411
    1DM2    H66   66  -0.046   0.003  -0.584
    1DM2    H67   67   0.109   0.066  -0.638
    1DM2    H68   68   0.071  -0.107  -0.661
    1DM2    H69   69  -0.466   0.105  -0.147
    1DM2    H70   70  -0.328   0.281  -0.096
   0.00000   0.00000   0.00000
